 Entering Gaussian System, Link 0=g16
 Initial command:
 /Applications/g16/l1.exe "/Users/mac_poclab/competitive_ketones/RWCCWEUUXYIKHB-KHWBWMQUSA-N/Gau-98505.inp" -scrdir="/Users/mac_poclab/competitive_ketones/RWCCWEUUXYIKHB-KHWBWMQUSA-N/"
 Entering Link 1 = /Applications/g16/l1.exe PID=     98506.
  
 Copyright (c) 1988,1990,1992,1993,1995,1998,2003,2009,2016,
            Gaussian, Inc.  All Rights Reserved.
  
 This is part of the Gaussian(R) 16 program.  It is based on
 the Gaussian(R) 09 system (copyright 2009, Gaussian, Inc.),
 the Gaussian(R) 03 system (copyright 2003, Gaussian, Inc.),
 the Gaussian(R) 98 system (copyright 1998, Gaussian, Inc.),
 the Gaussian(R) 94 system (copyright 1995, Gaussian, Inc.),
 the Gaussian 92(TM) system (copyright 1992, Gaussian, Inc.),
 the Gaussian 90(TM) system (copyright 1990, Gaussian, Inc.),
 the Gaussian 88(TM) system (copyright 1988, Gaussian, Inc.),
 the Gaussian 86(TM) system (copyright 1986, Carnegie Mellon
 University), and the Gaussian 82(TM) system (copyright 1983,
 Carnegie Mellon University). Gaussian is a federally registered
 trademark of Gaussian, Inc.
  
 This software contains proprietary and confidential information,
 including trade secrets, belonging to Gaussian, Inc.
  
 This software is provided under written license and may be
 used, copied, transmitted, or stored only in accord with that
 written license.
  
 The following legend is applicable only to US Government
 contracts under FAR:
  
                    RESTRICTED RIGHTS LEGEND
  
 Use, reproduction and disclosure by the US Government is
 subject to restrictions as set forth in subparagraphs (a)
 and (c) of the Commercial Computer Software - Restricted
 Rights clause in FAR 52.227-19.
  
 Gaussian, Inc.
 340 Quinnipiac St., Bldg. 40, Wallingford CT 06492
  
  
 ---------------------------------------------------------------
 Warning -- This program may not be used in any manner that
 competes with the business of Gaussian, Inc. or will provide
 assistance to any competitor of Gaussian, Inc.  The licensee
 of this program is prohibited from giving any competitor of
 Gaussian, Inc. access to this program.  By using this program,
 the user acknowledges that Gaussian, Inc. is engaged in the
 business of creating and licensing software in the field of
 computational chemistry and represents and warrants to the
 licensee that it is not a competitor of Gaussian, Inc. and that
 it will not use this program in any manner prohibited above.
 ---------------------------------------------------------------
  

 Cite this work as:
 Gaussian 16, Revision A.03,
 M. J. Frisch, G. W. Trucks, H. B. Schlegel, G. E. Scuseria, 
 M. A. Robb, J. R. Cheeseman, G. Scalmani, V. Barone, 
 G. A. Petersson, H. Nakatsuji, X. Li, M. Caricato, A. V. Marenich, 
 J. Bloino, B. G. Janesko, R. Gomperts, B. Mennucci, H. P. Hratchian, 
 J. V. Ortiz, A. F. Izmaylov, J. L. Sonnenberg, D. Williams-Young, 
 F. Ding, F. Lipparini, F. Egidi, J. Goings, B. Peng, A. Petrone, 
 T. Henderson, D. Ranasinghe, V. G. Zakrzewski, J. Gao, N. Rega, 
 G. Zheng, W. Liang, M. Hada, M. Ehara, K. Toyota, R. Fukuda, 
 J. Hasegawa, M. Ishida, T. Nakajima, Y. Honda, O. Kitao, H. Nakai, 
 T. Vreven, K. Throssell, J. A. Montgomery, Jr., J. E. Peralta, 
 F. Ogliaro, M. J. Bearpark, J. J. Heyd, E. N. Brothers, K. N. Kudin, 
 V. N. Staroverov, T. A. Keith, R. Kobayashi, J. Normand, 
 K. Raghavachari, A. P. Rendell, J. C. Burant, S. S. Iyengar, 
 J. Tomasi, M. Cossi, J. M. Millam, M. Klene, C. Adamo, R. Cammi, 
 J. W. Ochterski, R. L. Martin, K. Morokuma, O. Farkas, 
 J. B. Foresman, and D. J. Fox, Gaussian, Inc., Wallingford CT, 2016.
 
 ******************************************
 Gaussian 16:  EM64M-G16RevA.03 25-Dec-2016
                20-Jun-2025 
 ******************************************
 %nprocshared=24
 Will use up to   24 processors via shared memory.
 %mem=30GB
 %chk=/Users/mac_poclab/competitive_ketones/RWCCWEUUXYIKHB-KHWBWMQUSA-N/opt14.chk
 -------------------------------------------------------------
 # freq opt B3LYP/def2SVP EmpiricalDispersion=GD3BJ optcyc=300
 -------------------------------------------------------------
 1/6=300,18=20,19=15,26=3,38=1/1,3;
 2/9=110,12=2,17=6,18=5,40=1/2;
 3/5=43,7=101,11=2,25=1,30=1,71=1,74=-5,124=41/1,2,3;
 4//1;
 5/5=2,38=5/2;
 6/7=2,8=2,9=2,10=2,28=1/1;
 7//1,2,3,16;
 1/6=300,18=20,19=15,26=3/3(2);
 2/9=110/2;
 99//99;
 2/9=110/2;
 3/5=43,7=101,11=2,25=1,30=1,71=1,74=-5,124=41/1,2,3;
 4/5=5,16=3,69=1/1;
 5/5=2,38=5/2;
 7//1,2,3,16;
 1/6=300,18=20,19=15,26=3/3(-5);
 2/9=110/2;
 6/7=2,8=2,9=2,10=2,19=2,28=1/1;
 99/9=1/99;
 ---------
 good luck
 ---------
 Symbolic Z-matrix:
 Charge =  0 Multiplicity = 1
 O                     0.21348  -0.80641   2.47184 
 C                     0.10952  -0.41369   1.31244 
 C                     1.33339  -0.26471   0.48487 
 C                     2.38853  -1.16196   0.68738 
 C                     3.55878  -1.04634  -0.06402 
 C                     3.68253  -0.02785  -1.00885 
 C                     2.64181   0.88185  -1.19839 
 C                     1.46876   0.76996  -0.44894 
 C                    -1.23708  -0.0991    0.77147 
 C                    -1.57565  -0.36618  -0.56079 
 C                    -2.85767  -0.06647  -1.02646 
 C                    -3.80398   0.48663  -0.16325 
 C                    -3.47598   0.73356   1.16971 
 C                    -2.19622   0.43549   1.63962 
 H                     2.29965  -1.95082   1.43179 
 H                     4.37542  -1.74659   0.09323 
 H                     4.597     0.06392  -1.59014 
 H                     2.74927   1.6849   -1.92359 
 H                     0.68069   1.50492  -0.59068 
 H                    -0.86128  -0.82275  -1.24087 
 H                    -3.12287  -0.27362  -2.06044 
 H                    -4.80317   0.71487  -0.52671 
 H                    -4.21792   1.15162   1.84553 
 H                    -1.94702   0.61876   2.683 
 

 GradGradGradGradGradGradGradGradGradGradGradGradGradGradGradGradGradGrad
 Berny optimization.
 Initialization pass.
                           ----------------------------
                           !    Initial Parameters    !
                           ! (Angstroms and Degrees)  !
 --------------------------                            --------------------------
 ! Name  Definition              Value          Derivative Info.                !
 --------------------------------------------------------------------------------
 ! R1    R(1,2)                  1.2285         estimate D2E/DX2                !
 ! R2    R(2,3)                  1.4849         estimate D2E/DX2                !
 ! R3    R(2,9)                  1.4849         estimate D2E/DX2                !
 ! R4    R(3,4)                  1.3998         estimate D2E/DX2                !
 ! R5    R(3,8)                  1.4003         estimate D2E/DX2                !
 ! R6    R(4,5)                  1.3955         estimate D2E/DX2                !
 ! R7    R(4,15)                 1.0883         estimate D2E/DX2                !
 ! R8    R(5,6)                  1.3948         estimate D2E/DX2                !
 ! R9    R(5,16)                 1.0872         estimate D2E/DX2                !
 ! R10   R(6,7)                  1.3952         estimate D2E/DX2                !
 ! R11   R(6,17)                 1.0875         estimate D2E/DX2                !
 ! R12   R(7,8)                  1.3965         estimate D2E/DX2                !
 ! R13   R(7,18)                 1.0874         estimate D2E/DX2                !
 ! R14   R(8,19)                 1.0869         estimate D2E/DX2                !
 ! R15   R(9,10)                 1.4003         estimate D2E/DX2                !
 ! R16   R(9,14)                 1.3998         estimate D2E/DX2                !
 ! R17   R(10,11)                1.3965         estimate D2E/DX2                !
 ! R18   R(10,20)                1.0869         estimate D2E/DX2                !
 ! R19   R(11,12)                1.3952         estimate D2E/DX2                !
 ! R20   R(11,21)                1.0874         estimate D2E/DX2                !
 ! R21   R(12,13)                1.3948         estimate D2E/DX2                !
 ! R22   R(12,22)                1.0875         estimate D2E/DX2                !
 ! R23   R(13,14)                1.3955         estimate D2E/DX2                !
 ! R24   R(13,23)                1.0872         estimate D2E/DX2                !
 ! R25   R(14,24)                1.0883         estimate D2E/DX2                !
 ! A1    A(1,2,3)              119.2282         estimate D2E/DX2                !
 ! A2    A(1,2,9)              119.2282         estimate D2E/DX2                !
 ! A3    A(3,2,9)              121.5436         estimate D2E/DX2                !
 ! A4    A(2,3,4)              118.4466         estimate D2E/DX2                !
 ! A5    A(2,3,8)              121.6995         estimate D2E/DX2                !
 ! A6    A(4,3,8)              119.817          estimate D2E/DX2                !
 ! A7    A(3,4,5)              120.0728         estimate D2E/DX2                !
 ! A8    A(3,4,15)             120.1348         estimate D2E/DX2                !
 ! A9    A(5,4,15)             119.7923         estimate D2E/DX2                !
 ! A10   A(4,5,6)              119.9772         estimate D2E/DX2                !
 ! A11   A(4,5,16)             119.9108         estimate D2E/DX2                !
 ! A12   A(6,5,16)             120.1106         estimate D2E/DX2                !
 ! A13   A(5,6,7)              120.1304         estimate D2E/DX2                !
 ! A14   A(5,6,17)             119.8899         estimate D2E/DX2                !
 ! A15   A(7,6,17)             119.9756         estimate D2E/DX2                !
 ! A16   A(6,7,8)              120.0948         estimate D2E/DX2                !
 ! A17   A(6,7,18)             119.896          estimate D2E/DX2                !
 ! A18   A(8,7,18)             120.0062         estimate D2E/DX2                !
 ! A19   A(3,8,7)              119.8858         estimate D2E/DX2                !
 ! A20   A(3,8,19)             121.099          estimate D2E/DX2                !
 ! A21   A(7,8,19)             119.0053         estimate D2E/DX2                !
 ! A22   A(2,9,10)             121.6995         estimate D2E/DX2                !
 ! A23   A(2,9,14)             118.4466         estimate D2E/DX2                !
 ! A24   A(10,9,14)            119.8171         estimate D2E/DX2                !
 ! A25   A(9,10,11)            119.8857         estimate D2E/DX2                !
 ! A26   A(9,10,20)            121.0991         estimate D2E/DX2                !
 ! A27   A(11,10,20)           119.0052         estimate D2E/DX2                !
 ! A28   A(10,11,12)           120.0948         estimate D2E/DX2                !
 ! A29   A(10,11,21)           120.0062         estimate D2E/DX2                !
 ! A30   A(12,11,21)           119.896          estimate D2E/DX2                !
 ! A31   A(11,12,13)           120.1304         estimate D2E/DX2                !
 ! A32   A(11,12,22)           119.9756         estimate D2E/DX2                !
 ! A33   A(13,12,22)           119.89           estimate D2E/DX2                !
 ! A34   A(12,13,14)           119.9772         estimate D2E/DX2                !
 ! A35   A(12,13,23)           120.1105         estimate D2E/DX2                !
 ! A36   A(14,13,23)           119.9109         estimate D2E/DX2                !
 ! A37   A(9,14,13)            120.0728         estimate D2E/DX2                !
 ! A38   A(9,14,24)            120.1347         estimate D2E/DX2                !
 ! A39   A(13,14,24)           119.7924         estimate D2E/DX2                !
 ! D1    D(1,2,3,4)             33.7734         estimate D2E/DX2                !
 ! D2    D(1,2,3,8)           -144.0131         estimate D2E/DX2                !
 ! D3    D(9,2,3,4)           -146.2267         estimate D2E/DX2                !
 ! D4    D(9,2,3,8)             35.9869         estimate D2E/DX2                !
 ! D5    D(1,2,9,10)          -144.0133         estimate D2E/DX2                !
 ! D6    D(1,2,9,14)            33.7731         estimate D2E/DX2                !
 ! D7    D(3,2,9,10)            35.9867         estimate D2E/DX2                !
 ! D8    D(3,2,9,14)          -146.2269         estimate D2E/DX2                !
 ! D9    D(2,3,4,5)           -179.4807         estimate D2E/DX2                !
 ! D10   D(2,3,4,15)             0.4396         estimate D2E/DX2                !
 ! D11   D(8,3,4,5)             -1.6514         estimate D2E/DX2                !
 ! D12   D(8,3,4,15)           178.2689         estimate D2E/DX2                !
 ! D13   D(2,3,8,7)            179.3937         estimate D2E/DX2                !
 ! D14   D(2,3,8,19)             0.5515         estimate D2E/DX2                !
 ! D15   D(4,3,8,7)              1.637          estimate D2E/DX2                !
 ! D16   D(4,3,8,19)          -177.2053         estimate D2E/DX2                !
 ! D17   D(3,4,5,6)              0.6187         estimate D2E/DX2                !
 ! D18   D(3,4,5,16)          -179.8069         estimate D2E/DX2                !
 ! D19   D(15,4,5,6)          -179.3018         estimate D2E/DX2                !
 ! D20   D(15,4,5,16)            0.2725         estimate D2E/DX2                !
 ! D21   D(4,5,6,7)              0.4306         estimate D2E/DX2                !
 ! D22   D(4,5,6,17)           179.6982         estimate D2E/DX2                !
 ! D23   D(16,5,6,7)          -179.1429         estimate D2E/DX2                !
 ! D24   D(16,5,6,17)            0.1247         estimate D2E/DX2                !
 ! D25   D(5,6,7,8)             -0.4424         estimate D2E/DX2                !
 ! D26   D(5,6,7,18)           178.9252         estimate D2E/DX2                !
 ! D27   D(17,6,7,8)          -179.7093         estimate D2E/DX2                !
 ! D28   D(17,6,7,18)           -0.3418         estimate D2E/DX2                !
 ! D29   D(6,7,8,3)             -0.5942         estimate D2E/DX2                !
 ! D30   D(6,7,8,19)           178.2723         estimate D2E/DX2                !
 ! D31   D(18,7,8,3)          -179.9611         estimate D2E/DX2                !
 ! D32   D(18,7,8,19)           -1.0946         estimate D2E/DX2                !
 ! D33   D(2,9,10,11)          179.3937         estimate D2E/DX2                !
 ! D34   D(2,9,10,20)            0.5515         estimate D2E/DX2                !
 ! D35   D(14,9,10,11)           1.637          estimate D2E/DX2                !
 ! D36   D(14,9,10,20)        -177.2052         estimate D2E/DX2                !
 ! D37   D(2,9,14,13)         -179.4807         estimate D2E/DX2                !
 ! D38   D(2,9,14,24)            0.4396         estimate D2E/DX2                !
 ! D39   D(10,9,14,13)          -1.6514         estimate D2E/DX2                !
 ! D40   D(10,9,14,24)         178.2689         estimate D2E/DX2                !
 ! D41   D(9,10,11,12)          -0.5941         estimate D2E/DX2                !
 ! D42   D(9,10,11,21)        -179.961          estimate D2E/DX2                !
 ! D43   D(20,10,11,12)        178.2723         estimate D2E/DX2                !
 ! D44   D(20,10,11,21)         -1.0946         estimate D2E/DX2                !
 ! D45   D(10,11,12,13)         -0.4424         estimate D2E/DX2                !
 ! D46   D(10,11,12,22)       -179.7093         estimate D2E/DX2                !
 ! D47   D(21,11,12,13)        178.9252         estimate D2E/DX2                !
 ! D48   D(21,11,12,22)         -0.3417         estimate D2E/DX2                !
 ! D49   D(11,12,13,14)          0.4305         estimate D2E/DX2                !
 ! D50   D(11,12,13,23)       -179.1429         estimate D2E/DX2                !
 ! D51   D(22,12,13,14)        179.6981         estimate D2E/DX2                !
 ! D52   D(22,12,13,23)          0.1247         estimate D2E/DX2                !
 ! D53   D(12,13,14,9)           0.6188         estimate D2E/DX2                !
 ! D54   D(12,13,14,24)       -179.3018         estimate D2E/DX2                !
 ! D55   D(23,13,14,9)        -179.8069         estimate D2E/DX2                !
 ! D56   D(23,13,14,24)          0.2725         estimate D2E/DX2                !
 --------------------------------------------------------------------------------
 Trust Radius=3.00D-01 FncErr=1.00D-07 GrdErr=1.00D-06 EigMax=2.50D+02 EigMin=1.00D-04
 Number of steps in this run=    144 maximum allowed number of steps=    144.
 GradGradGradGradGradGradGradGradGradGradGradGradGradGradGradGradGradGrad

                          Input orientation:                          
 ---------------------------------------------------------------------
 Center     Atomic      Atomic             Coordinates (Angstroms)
 Number     Number       Type             X           Y           Z
 ---------------------------------------------------------------------
      1          8           0        0.213482   -0.806413    2.471843
      2          6           0        0.109516   -0.413688    1.312442
      3          6           0        1.333393   -0.264705    0.484873
      4          6           0        2.388533   -1.161962    0.687384
      5          6           0        3.558779   -1.046338   -0.064024
      6          6           0        3.682526   -0.027846   -1.008853
      7          6           0        2.641813    0.881849   -1.198385
      8          6           0        1.468758    0.769963   -0.448940
      9          6           0       -1.237083   -0.099102    0.771468
     10          6           0       -1.575649   -0.366177   -0.560789
     11          6           0       -2.857667   -0.066466   -1.026459
     12          6           0       -3.803980    0.486630   -0.163251
     13          6           0       -3.475979    0.733560    1.169709
     14          6           0       -2.196216    0.435485    1.639617
     15          1           0        2.299649   -1.950824    1.431789
     16          1           0        4.375423   -1.746585    0.093228
     17          1           0        4.596997    0.063924   -1.590138
     18          1           0        2.749266    1.684899   -1.923590
     19          1           0        0.680691    1.504922   -0.590684
     20          1           0       -0.861277   -0.822754   -1.240874
     21          1           0       -3.122869   -0.273623   -2.060439
     22          1           0       -4.803168    0.714872   -0.526707
     23          1           0       -4.217921    1.151617    1.845529
     24          1           0       -1.947017    0.618763    2.683001
 ---------------------------------------------------------------------
                    Distance matrix (angstroms):
                    1          2          3          4          5
     1  O    0.000000
     2  C    1.228516   0.000000
     3  C    2.344291   1.484904   0.000000
     4  C    2.835764   2.478816   1.399786   0.000000
     5  C    4.204664   3.767270   2.421690   1.395514   0.000000
     6  C    4.975508   4.278281   2.793876   2.416166   1.394755
     7  C    4.713554   3.794100   2.420724   2.792389   2.417748
     8  C    3.548472   2.520126   1.400310   2.422716   2.795585
     9  C    2.344292   1.484906   2.591700   3.779131   4.959395
    10  C    3.548472   2.520126   3.092932   4.231542   5.203052
    11  C    4.713554   3.794100   4.459642   5.626721   6.561799
    12  C    4.975508   4.278282   5.232320   6.464414   7.521307
    13  C    4.204663   3.767270   4.959394   6.182082   7.360568
    14  C    2.835764   2.478818   3.779132   4.947576   6.182084
    15  H    2.596821   2.678379   2.161781   1.088275   2.154289
    16  H    4.885027   4.632608   3.406362   2.154655   1.087190
    17  H    6.039237   5.365684   3.881337   3.401061   2.153974
    18  H    5.653023   4.673783   3.406809   3.879682   3.401904
    19  H    3.865181   2.762100   2.171272   3.415033   3.881970
    20  H    3.865183   2.762100   2.847139   3.794009   4.579504
    21  H    5.653024   4.673784   5.131955   6.222156   7.016208
    22  H    6.039237   5.365685   6.296050   7.531075   8.557926
    23  H    4.885026   4.632610   5.888501   7.095011   8.303882
    24  H    2.596819   2.678379   4.046402   5.094160   6.374363
                    6          7          8          9         10
     6  C    0.000000
     7  C    1.395188   0.000000
     8  C    2.418837   1.396511   0.000000
     9  C    5.232320   4.459643   3.092935   0.000000
    10  C    5.288065   4.444219   3.251421   1.400309   0.000000
    11  C    6.540331   5.583291   4.444220   2.420723   1.396512
    12  C    7.551655   6.540332   5.288068   2.793876   2.418838
    13  C    7.521307   6.561801   5.203054   2.421689   2.795586
    14  C    6.464416   5.626724   4.231546   1.399786   2.422716
    15  H    3.401018   3.880583   3.410308   4.046402   4.636745
    16  H    2.156097   3.403283   3.882739   5.888500   6.143983
    17  H    1.087461   2.155276   3.403925   6.296050   6.272647
    18  H    2.154348   1.087363   2.156711   5.131956   4.976849
    19  H    3.396359   2.145581   1.086879   2.847140   2.931378
    20  H    4.618642   3.896039   2.931377   2.171272   1.086879
    21  H    6.890547   5.942206   4.976850   3.406808   2.156712
    22  H    8.531770   7.477083   6.272650   3.881337   3.403925
    23  H    8.482670   7.509603   6.143986   3.406362   3.882740
    24  H    6.763109   6.015956   4.636748   2.161780   3.410307
                   11         12         13         14         15
    11  C    0.000000
    12  C    1.395189   0.000000
    13  C    2.417748   1.394755   0.000000
    14  C    2.792388   2.416165   1.395513   0.000000
    15  H    6.015954   6.763107   6.374361   5.094160   0.000000
    16  H    7.509600   8.482668   8.303881   7.095011   2.478366
    17  H    7.477082   8.531770   8.557927   7.531077   4.297564
    18  H    5.942207   6.890550   7.016211   6.222160   4.967817
    19  H    3.896041   4.618646   4.579507   3.794013   4.318982
    20  H    2.145581   3.396360   3.881970   3.415034   4.290352
    21  H    1.087364   2.154349   3.401905   3.879682   6.664260
    22  H    2.155276   1.087461   2.153975   3.401061   7.835282
    23  H    3.403283   2.156096   1.087190   2.154654   7.230148
    24  H    3.880582   3.401018   2.154288   1.088274   5.118836
                   16         17         18         19         20
    16  H    0.000000
    17  H    2.482088   0.000000
    18  H    4.299654   2.480496   0.000000
    19  H    4.969012   4.291018   2.467394   0.000000
    20  H    5.482364   5.540843   4.448645   2.866791   0.000000
    21  H    7.939287   7.741541   6.191648   4.448648   2.467393
    22  H    9.523110   9.482495   7.741543   5.540847   4.291018
    23  H    9.236650   9.523112   7.939291   5.482368   4.969012
    24  H    7.230148   7.835284   6.664263   4.290354   4.318981
                   21         22         23         24
    21  H    0.000000
    22  H    2.480496   0.000000
    23  H    4.299655   2.482089   0.000000
    24  H    4.967817   4.297565   2.478366   0.000000
 Stoichiometry    C13H10O
 Framework group  C1[X(C13H10O)]
 Deg. of freedom    66
 Full point group                 C1      NOp   1
 Largest Abelian subgroup         C1      NOp   1
 Largest concise Abelian subgroup C1      NOp   1
                         Standard orientation:                         
 ---------------------------------------------------------------------
 Center     Atomic      Atomic             Coordinates (Angstroms)
 Number     Number       Type             X           Y           Z
 ---------------------------------------------------------------------
      1          8           0        0.000000    2.316053    0.000002
      2          6           0       -0.000000    1.087537    0.000000
      3          6           0       -1.294842    0.362474    0.051086
      4          6           0       -2.402412    0.929716   -0.589949
      5          6           0       -3.638328    0.282655   -0.554130
      6          6           0       -3.773521   -0.924132    0.131966
      7          6           0       -2.677343   -1.481881    0.790648
      8          6           0       -1.438517   -0.838105    0.757369
      9          6           0        1.294843    0.362473   -0.051086
     10          6           0        1.438515   -0.838107   -0.757366
     11          6           0        2.677342   -1.481882   -0.790646
     12          6           0        3.773521   -0.924133   -0.131967
     13          6           0        3.638328    0.282655    0.554127
     14          6           0        2.402414    0.929717    0.589947
     15          1           0       -2.303027    1.876899   -1.116552
     16          1           0       -4.496074    0.724022   -1.055576
     17          1           0       -4.738442   -1.424662    0.163101
     18          1           0       -2.791269   -2.413908    1.339013
     19          1           0       -0.603570   -1.273515    1.300128
     20          1           0        0.603568   -1.273518   -1.300123
     21          1           0        2.791266   -2.413912   -1.339011
     22          1           0        4.738441   -1.424664   -0.163104
     23          1           0        4.496076    0.724023    1.055571
     24          1           0        2.303029    1.876900    1.116547
 ---------------------------------------------------------------------
 Rotational constants (GHZ):           1.6858154           0.4109306           0.3568959
 Standard basis: def2SVP (5D, 7F)
 There are   260 symmetry adapted cartesian basis functions of A   symmetry.
 There are   246 symmetry adapted basis functions of A   symmetry.
   246 basis functions,   420 primitive gaussians,   260 cartesian basis functions
    48 alpha electrons       48 beta electrons
       nuclear repulsion energy       775.0790313306 Hartrees.
 NAtoms=   24 NActive=   24 NUniq=   24 SFac= 1.00D+00 NAtFMM=   60 NAOKFM=F Big=F
 Integral buffers will be    131072 words long.
 Raffenetti 2 integral format.
 Two-electron integral symmetry is turned on.
 Nuclear repulsion after empirical dispersion term =      775.0281432054 Hartrees.
 One-electron integrals computed using PRISM.
   1 Symmetry operations used in ECPInt.
 ECPInt:  NShTT=    6555 NPrTT=   24083 LenC2=    6209 LenP2D=   16784.
 LDataN:  DoStor=T MaxTD1= 4 Len=   56
 NBasis=   246 RedAO= T EigKep=  2.88D-04  NBF=   246
 NBsUse=   246 1.00D-06 EigRej= -1.00D+00 NBFU=   246
 ExpMin= 1.22D-01 ExpMax= 2.27D+03 ExpMxC= 3.41D+02 IAcc=3 IRadAn=         5 AccDes= 0.00D+00
 Harris functional with IExCor=  402 and IRadAn=       5 diagonalized for initial guess.
 HarFok:  IExCor=  402 AccDes= 0.00D+00 IRadAn=         5 IDoV= 1 UseB2=F ITyADJ=14
 ICtDFT=  3500011 ScaDFX=  1.000000  1.000000  1.000000  1.000000
 FoFCou: FMM=F IPFlag=           0 FMFlag=      100000 FMFlg1=           0
         NFxFlg=           0 DoJE=T BraDBF=F KetDBF=T FulRan=T
         wScrn=  0.000000 ICntrl=       500 IOpCl=  0 I1Cent=   200000004 NGrid=           0
         NMat0=    1 NMatS0=      1 NMatT0=    0 NMatD0=    1 NMtDS0=    0 NMtDT0=    0
 Petite list used in FoFCou.
 Requested convergence on RMS density matrix=1.00D-08 within 128 cycles.
 Requested convergence on MAX density matrix=1.00D-06.
 Requested convergence on             energy=1.00D-06.
 No special actions if energy rises.
 Integral accuracy reduced to 1.0D-05 until final iterations.
 Initial convergence to 1.0D-05 achieved.  Increase integral accuracy.
 SCF Done:  E(RB3LYP) =  -576.267412935     A.U. after   15 cycles
            NFock= 15  Conv=0.65D-08     -V/T= 2.0108

 **********************************************************************

            Population analysis using the SCF density.

 **********************************************************************

 Orbital symmetries:
       Occupied  (A) (A) (A) (A) (A) (A) (A) (A) (A) (A) (A) (A)
                 (A) (A) (A) (A) (A) (A) (A) (A) (A) (A) (A) (A)
                 (A) (A) (A) (A) (A) (A) (A) (A) (A) (A) (A) (A)
                 (A) (A) (A) (A) (A) (A) (A) (A) (A) (A) (A) (A)
       Virtual   (A) (A) (A) (A) (A) (A) (A) (A) (A) (A) (A) (A)
                 (A) (A) (A) (A) (A) (A) (A) (A) (A) (A) (A) (A)
                 (A) (A) (A) (A) (A) (A) (A) (A) (A) (A) (A) (A)
                 (A) (A) (A) (A) (A) (A) (A) (A) (A) (A) (A) (A)
                 (A) (A) (A) (A) (A) (A) (A) (A) (A) (A) (A) (A)
                 (A) (A) (A) (A) (A) (A) (A) (A) (A) (A) (A) (A)
                 (A) (A) (A) (A) (A) (A) (A) (A) (A) (A) (A) (A)
                 (A) (A) (A) (A) (A) (A) (A) (A) (A) (A) (A) (A)
                 (A) (A) (A) (A) (A) (A) (A) (A) (A) (A) (A) (A)
                 (A) (A) (A) (A) (A) (A) (A) (A) (A) (A) (A) (A)
                 (A) (A) (A) (A) (A) (A) (A) (A) (A) (A) (A) (A)
                 (A) (A) (A) (A) (A) (A) (A) (A) (A) (A) (A) (A)
                 (A) (A) (A) (A) (A) (A) (A) (A) (A) (A) (A) (A)
                 (A) (A) (A) (A) (A) (A) (A) (A) (A) (A) (A) (A)
                 (A) (A) (A) (A) (A) (A) (A) (A) (A) (A) (A) (A)
                 (A) (A) (A) (A) (A) (A) (A) (A) (A) (A) (A) (A)
                 (A) (A) (A) (A) (A) (A)
 The electronic state is 1-A.
 Alpha  occ. eigenvalues --  -19.11789 -10.27091 -10.20402 -10.20400 -10.20255
 Alpha  occ. eigenvalues --  -10.20255 -10.20170 -10.20170 -10.20082 -10.20081
 Alpha  occ. eigenvalues --  -10.20018 -10.20017 -10.19943 -10.19943  -1.02223
 Alpha  occ. eigenvalues --   -0.86336  -0.85841  -0.77469  -0.75270  -0.74951
 Alpha  occ. eigenvalues --   -0.74759  -0.65332  -0.61831  -0.61146  -0.60438
 Alpha  occ. eigenvalues --   -0.56084  -0.53667  -0.50320  -0.47801  -0.46875
 Alpha  occ. eigenvalues --   -0.46439  -0.45028  -0.44263  -0.43348  -0.43278
 Alpha  occ. eigenvalues --   -0.42259  -0.39960  -0.38118  -0.37097  -0.36615
 Alpha  occ. eigenvalues --   -0.36400  -0.35479  -0.35127  -0.27150  -0.27072
 Alpha  occ. eigenvalues --   -0.26708  -0.26421  -0.24673
 Alpha virt. eigenvalues --   -0.06777  -0.02631  -0.02230  -0.01294   0.04432
 Alpha virt. eigenvalues --    0.05857   0.06224   0.09447   0.09755   0.10957
 Alpha virt. eigenvalues --    0.11645   0.13200   0.14013   0.14225   0.14702
 Alpha virt. eigenvalues --    0.15237   0.16120   0.24025   0.25384   0.26206
 Alpha virt. eigenvalues --    0.27530   0.28178   0.28305   0.28585   0.29952
 Alpha virt. eigenvalues --    0.30588   0.32584   0.33502   0.36059   0.36551
 Alpha virt. eigenvalues --    0.37693   0.40035   0.40819   0.41113   0.42775
 Alpha virt. eigenvalues --    0.43488   0.44496   0.44704   0.46668   0.46872
 Alpha virt. eigenvalues --    0.47781   0.48011   0.48442   0.49307   0.51210
 Alpha virt. eigenvalues --    0.51544   0.52620   0.54400   0.55206   0.56562
 Alpha virt. eigenvalues --    0.57167   0.59444   0.60883   0.61438   0.62702
 Alpha virt. eigenvalues --    0.63464   0.63596   0.64883   0.65290   0.65852
 Alpha virt. eigenvalues --    0.65946   0.66644   0.66926   0.68574   0.69232
 Alpha virt. eigenvalues --    0.70598   0.70834   0.71808   0.72287   0.72835
 Alpha virt. eigenvalues --    0.73717   0.74339   0.75415   0.76269   0.78240
 Alpha virt. eigenvalues --    0.79998   0.80878   0.82539   0.83572   0.86417
 Alpha virt. eigenvalues --    0.90208   0.93301   0.93605   0.96950   1.01731
 Alpha virt. eigenvalues --    1.05594   1.06773   1.07378   1.08510   1.15605
 Alpha virt. eigenvalues --    1.18267   1.19980   1.20935   1.22798   1.23752
 Alpha virt. eigenvalues --    1.24364   1.25370   1.25691   1.26605   1.27484
 Alpha virt. eigenvalues --    1.28215   1.28477   1.30167   1.31207   1.32905
 Alpha virt. eigenvalues --    1.42610   1.48987   1.50334   1.52077   1.54789
 Alpha virt. eigenvalues --    1.64928   1.65053   1.66512   1.67189   1.70147
 Alpha virt. eigenvalues --    1.71219   1.71617   1.71965   1.73341   1.73913
 Alpha virt. eigenvalues --    1.74258   1.74295   1.74814   1.75815   1.76753
 Alpha virt. eigenvalues --    1.77052   1.77167   1.78335   1.79385   1.81847
 Alpha virt. eigenvalues --    1.83468   1.84139   1.89301   1.92231   1.93118
 Alpha virt. eigenvalues --    1.93815   1.95691   1.97334   1.97404   1.97617
 Alpha virt. eigenvalues --    1.98291   1.98833   1.99844   2.05185   2.07875
 Alpha virt. eigenvalues --    2.10124   2.10914   2.12348   2.13516   2.13769
 Alpha virt. eigenvalues --    2.15057   2.15379   2.22425   2.27263   2.27560
 Alpha virt. eigenvalues --    2.28716   2.29322   2.29341   2.30670   2.30827
 Alpha virt. eigenvalues --    2.31779   2.34066   2.34582   2.36162   2.43390
 Alpha virt. eigenvalues --    2.48245   2.49506   2.52759   2.56695   2.60614
 Alpha virt. eigenvalues --    2.61000   2.62497   2.62889   2.64346   2.65374
 Alpha virt. eigenvalues --    2.72106   2.72221   2.72298   2.72706   2.72951
 Alpha virt. eigenvalues --    2.75151   2.77262   2.85969   2.86265   2.87352
 Alpha virt. eigenvalues --    2.87477   2.95736   3.02718   3.05894   3.09769
 Alpha virt. eigenvalues --    3.12540   3.14268   3.18972   3.26613   3.39417
 Alpha virt. eigenvalues --    3.61542   3.63227   3.65641
          Condensed to atoms (all electrons):
               1          2          3          4          5          6
     1  O    7.664878   0.744812  -0.121012   0.010871   0.000934  -0.000032
     2  C    0.744812   4.982323   0.222652  -0.058620   0.016487  -0.000949
     3  C   -0.121012   0.222652   5.677901   0.192438   0.117358  -0.174331
     4  C    0.010871  -0.058620   0.192438   5.151766   0.230090   0.120166
     5  C    0.000934   0.016487   0.117358   0.230090   5.126686   0.220812
     6  C   -0.000032  -0.000949  -0.174331   0.120166   0.220812   5.135584
     7  C   -0.000089   0.011961   0.114227  -0.152002   0.113136   0.242705
     8  C   -0.000003  -0.082758   0.242812   0.067878  -0.156891   0.107786
     9  C   -0.121012   0.222652  -0.172289   0.017170  -0.000321  -0.000010
    10  C   -0.000003  -0.082758  -0.010623  -0.000098  -0.000047  -0.000005
    11  C   -0.000089   0.011961  -0.000893   0.000055   0.000000  -0.000001
    12  C   -0.000032  -0.000949  -0.000010   0.000000   0.000000  -0.000000
    13  C    0.000934   0.016487  -0.000321   0.000002  -0.000000   0.000000
    14  C    0.010871  -0.058620   0.017170  -0.000632   0.000002   0.000000
    15  H    0.012649  -0.014957  -0.084607   0.454176  -0.074386   0.015490
    16  H   -0.000008  -0.000415   0.017097  -0.076717   0.445506  -0.078560
    17  H    0.000000   0.000029  -0.001661   0.015086  -0.074426   0.440319
    18  H    0.000002  -0.000262   0.017056  -0.001725   0.015439  -0.078320
    19  H   -0.000019  -0.018807  -0.073213   0.015168  -0.001964   0.015157
    20  H   -0.000019  -0.018807   0.007874  -0.000841   0.000005  -0.000007
    21  H    0.000002  -0.000262   0.000028  -0.000002  -0.000000   0.000000
    22  H    0.000000   0.000029   0.000001   0.000000   0.000000  -0.000000
    23  H   -0.000008  -0.000415   0.000005  -0.000000   0.000000   0.000000
    24  H    0.012649  -0.014957   0.002297  -0.000056  -0.000001   0.000000
               7          8          9         10         11         12
     1  O   -0.000089  -0.000003  -0.121012  -0.000003  -0.000089  -0.000032
     2  C    0.011961  -0.082758   0.222652  -0.082758   0.011961  -0.000949
     3  C    0.114227   0.242812  -0.172289  -0.010623  -0.000893  -0.000010
     4  C   -0.152002   0.067878   0.017170  -0.000098   0.000055   0.000000
     5  C    0.113136  -0.156891  -0.000321  -0.000047   0.000000   0.000000
     6  C    0.242705   0.107786  -0.000010  -0.000005  -0.000001  -0.000000
     7  C    5.071305   0.271268  -0.000893  -0.000287  -0.000037  -0.000001
     8  C    0.271268   5.151169  -0.010623  -0.001682  -0.000287  -0.000005
     9  C   -0.000893  -0.010623   5.677902   0.242812   0.114227  -0.174331
    10  C   -0.000287  -0.001682   0.242812   5.151170   0.271268   0.107786
    11  C   -0.000037  -0.000287   0.114227   0.271268   5.071306   0.242706
    12  C   -0.000001  -0.000005  -0.174331   0.107786   0.242706   5.135584
    13  C    0.000000  -0.000047   0.117359  -0.156892   0.113136   0.220812
    14  C    0.000055  -0.000098   0.192438   0.067878  -0.152002   0.120166
    15  H   -0.002124   0.015350   0.002297  -0.000072   0.000005   0.000000
    16  H    0.015342  -0.001634   0.000005  -0.000000  -0.000000   0.000000
    17  H   -0.074041   0.015660   0.000001  -0.000000   0.000000  -0.000000
    18  H    0.442616  -0.074721   0.000028  -0.000003   0.000001   0.000000
    19  H   -0.067879   0.444837   0.007874   0.003120   0.000160  -0.000007
    20  H    0.000160   0.003120  -0.073214   0.444837  -0.067879   0.015157
    21  H    0.000001  -0.000003   0.017056  -0.074720   0.442616  -0.078320
    22  H    0.000000  -0.000000  -0.001661   0.015660  -0.074041   0.440319
    23  H   -0.000000  -0.000000   0.017097  -0.001634   0.015342  -0.078560
    24  H    0.000005  -0.000072  -0.084607   0.015350  -0.002124   0.015490
              13         14         15         16         17         18
     1  O    0.000934   0.010871   0.012649  -0.000008   0.000000   0.000002
     2  C    0.016487  -0.058620  -0.014957  -0.000415   0.000029  -0.000262
     3  C   -0.000321   0.017170  -0.084607   0.017097  -0.001661   0.017056
     4  C    0.000002  -0.000632   0.454176  -0.076717   0.015086  -0.001725
     5  C   -0.000000   0.000002  -0.074386   0.445506  -0.074426   0.015439
     6  C    0.000000   0.000000   0.015490  -0.078560   0.440319  -0.078320
     7  C    0.000000   0.000055  -0.002124   0.015342  -0.074041   0.442616
     8  C   -0.000047  -0.000098   0.015350  -0.001634   0.015660  -0.074721
     9  C    0.117359   0.192438   0.002297   0.000005   0.000001   0.000028
    10  C   -0.156892   0.067878  -0.000072  -0.000000  -0.000000  -0.000003
    11  C    0.113136  -0.152002   0.000005  -0.000000   0.000000   0.000001
    12  C    0.220812   0.120166   0.000000   0.000000  -0.000000   0.000000
    13  C    5.126688   0.230089  -0.000001   0.000000   0.000000  -0.000000
    14  C    0.230089   5.151767  -0.000056  -0.000000   0.000000  -0.000002
    15  H   -0.000001  -0.000056   0.697599  -0.012972  -0.000282   0.000038
    16  H    0.000000  -0.000000  -0.012972   0.719471  -0.013632  -0.000313
    17  H    0.000000   0.000000  -0.000282  -0.013632   0.719663  -0.013709
    18  H   -0.000000  -0.000002   0.000038  -0.000313  -0.013709   0.722602
    19  H    0.000005  -0.000841  -0.000211   0.000034  -0.000301  -0.013607
    20  H   -0.001964   0.015168  -0.000017  -0.000003  -0.000001   0.000003
    21  H    0.015439  -0.001725  -0.000000  -0.000000   0.000000  -0.000000
    22  H   -0.074426   0.015086  -0.000000   0.000000   0.000000   0.000000
    23  H    0.445506  -0.076717  -0.000000  -0.000000   0.000000  -0.000000
    24  H   -0.074386   0.454176  -0.000019  -0.000000  -0.000000  -0.000000
              19         20         21         22         23         24
     1  O   -0.000019  -0.000019   0.000002   0.000000  -0.000008   0.012649
     2  C   -0.018807  -0.018807  -0.000262   0.000029  -0.000415  -0.014957
     3  C   -0.073213   0.007874   0.000028   0.000001   0.000005   0.002297
     4  C    0.015168  -0.000841  -0.000002   0.000000  -0.000000  -0.000056
     5  C   -0.001964   0.000005  -0.000000   0.000000   0.000000  -0.000001
     6  C    0.015157  -0.000007   0.000000  -0.000000   0.000000   0.000000
     7  C   -0.067879   0.000160   0.000001   0.000000  -0.000000   0.000005
     8  C    0.444837   0.003120  -0.000003  -0.000000  -0.000000  -0.000072
     9  C    0.007874  -0.073214   0.017056  -0.001661   0.017097  -0.084607
    10  C    0.003120   0.444837  -0.074720   0.015660  -0.001634   0.015350
    11  C    0.000160  -0.067879   0.442616  -0.074041   0.015342  -0.002124
    12  C   -0.000007   0.015157  -0.078320   0.440319  -0.078560   0.015490
    13  C    0.000005  -0.001964   0.015439  -0.074426   0.445506  -0.074386
    14  C   -0.000841   0.015168  -0.001725   0.015086  -0.076717   0.454176
    15  H   -0.000211  -0.000017  -0.000000  -0.000000  -0.000000  -0.000019
    16  H    0.000034  -0.000003  -0.000000   0.000000  -0.000000  -0.000000
    17  H   -0.000301  -0.000001   0.000000   0.000000   0.000000  -0.000000
    18  H   -0.013607   0.000003  -0.000000   0.000000  -0.000000  -0.000000
    19  H    0.701684  -0.000993   0.000003  -0.000001  -0.000003  -0.000017
    20  H   -0.000993   0.701683  -0.013607  -0.000301   0.000034  -0.000211
    21  H    0.000003  -0.013607   0.722601  -0.013709  -0.000313   0.000038
    22  H   -0.000001  -0.000301  -0.013709   0.719663  -0.013632  -0.000282
    23  H   -0.000003   0.000034  -0.000313  -0.013632   0.719471  -0.012972
    24  H   -0.000017  -0.000211   0.000038  -0.000282  -0.012972   0.697599
 Mulliken charges:
               1
     1  O   -0.216275
     2  C    0.124145
     3  C    0.010045
     4  C    0.015829
     5  C    0.021583
     6  C    0.034195
     7  C    0.014573
     8  C    0.008943
     9  C    0.010045
    10  C    0.008943
    11  C    0.014572
    12  C    0.034195
    13  C    0.021583
    14  C    0.015829
    15  H   -0.007899
    16  H   -0.013201
    17  H   -0.012704
    18  H   -0.015122
    19  H   -0.010177
    20  H   -0.010177
    21  H   -0.015121
    22  H   -0.012704
    23  H   -0.013201
    24  H   -0.007899
 Sum of Mulliken charges =  -0.00000
 Mulliken charges with hydrogens summed into heavy atoms:
               1
     1  O   -0.216275
     2  C    0.124145
     3  C    0.010045
     4  C    0.007930
     5  C    0.008382
     6  C    0.021491
     7  C   -0.000549
     8  C   -0.001234
     9  C    0.010045
    10  C   -0.001234
    11  C   -0.000549
    12  C    0.021491
    13  C    0.008382
    14  C    0.007930
 Electronic spatial extent (au):  <R**2>=           3069.7957
 Charge=             -0.0000 electrons
 Dipole moment (field-independent basis, Debye):
    X=             -0.0000    Y=             -2.9816    Z=             -0.0000  Tot=              2.9816
 Quadrupole moment (field-independent basis, Debye-Ang):
   XX=            -66.9811   YY=            -83.9570   ZZ=            -80.5797
   XY=              0.0000   XZ=              2.7294   YZ=             -0.0000
 Traceless Quadrupole moment (field-independent basis, Debye-Ang):
   XX=             10.1915   YY=             -6.7844   ZZ=             -3.4071
   XY=              0.0000   XZ=              2.7294   YZ=             -0.0000
 Octapole moment (field-independent basis, Debye-Ang**2):
  XXX=             -0.0000  YYY=            -16.1508  ZZZ=              0.0000  XYY=              0.0000
  XXY=             -5.7656  XXZ=             -0.0000  XZZ=             -0.0000  YZZ=              3.5024
  YYZ=             -0.0000  XYZ=             15.6353
 Hexadecapole moment (field-independent basis, Debye-Ang**3):
 XXXX=          -2947.3329 YYYY=           -745.8286 ZZZZ=           -259.9502 XXXY=              0.0001
 XXXZ=             66.2449 YYYX=              0.0001 YYYZ=             -0.0000 ZZZX=              5.3998
 ZZZY=             -0.0001 XXYY=           -622.5085 XXZZ=           -608.3531 YYZZ=           -146.4088
 XXYZ=             -0.0001 YYXZ=             -7.3063 ZZXY=              0.0000
 N-N= 7.750281432054D+02 E-N=-2.886258559926D+03  KE= 5.701360865533D+02
   1 Symmetry operations used in ECPInt.
 ECPInt:  NShTT=    6555 NPrTT=   24083 LenC2=    6209 LenP2D=   16784.
 LDataN:  DoStor=T MaxTD1= 5 Len=  102
 Calling FoFJK, ICntrl=      2127 FMM=F ISym2X=0 I1Cent= 0 IOpClX= 0 NMat=1 NMatS=1 NMatT=0.
 ***** Axes restored to original set *****
 -------------------------------------------------------------------
 Center     Atomic                   Forces (Hartrees/Bohr)
 Number     Number              X              Y              Z
 -------------------------------------------------------------------
      1        8          -0.000717345    0.002709749   -0.007999910
      2        6           0.002273366   -0.008590278    0.025361018
      3        6          -0.003703724    0.000126958   -0.004780076
      4        6           0.007565635   -0.000499918   -0.002301352
      5        6          -0.003988190    0.000358076    0.002353713
      6        6          -0.000189138    0.000965431   -0.000489882
      7        6          -0.000447150   -0.000183086    0.002679724
      8        6           0.004837739   -0.000829092   -0.005402425
      9        6           0.002881503    0.002983411   -0.004401780
     10        6          -0.005587358    0.003657531   -0.002948640
     11        6           0.000878380   -0.001447029    0.002131783
     12        6           0.000056308   -0.000462608   -0.000995855
     13        6           0.004286572   -0.001489048    0.000985793
     14        6          -0.007796990    0.001376811   -0.000288151
     15        1          -0.003022148   -0.000489704    0.002008913
     16        1           0.002600759   -0.002619655    0.000317957
     17        1           0.002935550    0.000261079   -0.002384157
     18        1           0.000135260    0.002930517   -0.002139992
     19        1          -0.004555476    0.000155830    0.000256394
     20        1           0.004522867   -0.000032211   -0.000621285
     21        1          -0.000633519   -0.001047472   -0.003417654
     22        1          -0.003288412    0.001072068   -0.001551225
     23        1          -0.002370785    0.001751571    0.002244401
     24        1           0.003326294   -0.000658932    0.001382689
 -------------------------------------------------------------------
 Cartesian Forces:  Max     0.025361018 RMS     0.004266676

 GradGradGradGradGradGradGradGradGradGradGradGradGradGradGradGradGradGrad
 Berny optimization.
 FormGI is forming the generalized inverse of G from B-inverse, IUseBI=4.
 Internal  Forces:  Max     0.011257207 RMS     0.002432197
 Search for a local minimum.
 Step number   1 out of a maximum of  144
 All quantities printed in internal units (Hartrees-Bohrs-Radians)
 Mixed Optimization -- RFO/linear search
 Second derivative matrix not updated -- first step.
 ITU=  0
     Eigenvalues ---    0.00966   0.00966   0.00966   0.01748   0.01748
     Eigenvalues ---    0.02095   0.02095   0.02110   0.02110   0.02120
     Eigenvalues ---    0.02120   0.02133   0.02133   0.02143   0.02143
     Eigenvalues ---    0.02152   0.02152   0.02153   0.02153   0.02156
     Eigenvalues ---    0.02156   0.15997   0.15997   0.15999   0.15999
     Eigenvalues ---    0.15999   0.15999   0.16000   0.16000   0.16000
     Eigenvalues ---    0.16000   0.21998   0.21998   0.22000   0.22000
     Eigenvalues ---    0.23475   0.23475   0.24981   0.24981   0.25000
     Eigenvalues ---    0.25000   0.34014   0.34014   0.35013   0.35013
     Eigenvalues ---    0.35108   0.35108   0.35119   0.35119   0.35139
     Eigenvalues ---    0.35139   0.35176   0.35176   0.41901   0.41901
     Eigenvalues ---    0.41934   0.41934   0.45740   0.45740   0.46074
     Eigenvalues ---    0.46074   0.46283   0.46283   0.46441   0.46441
     Eigenvalues ---    0.91707
 RFO step:  Lambda=-5.04605312D-03 EMin= 9.65611059D-03
 Linear search not attempted -- first point.
 Iteration  1 RMS(Cart)=  0.15690883 RMS(Int)=  0.00595101
 Iteration  2 RMS(Cart)=  0.01239206 RMS(Int)=  0.00004809
 Iteration  3 RMS(Cart)=  0.00005853 RMS(Int)=  0.00003962
 Iteration  4 RMS(Cart)=  0.00000000 RMS(Int)=  0.00003962
 Variable       Old X    -DE/DX   Delta X   Delta X   Delta X     New X
                                 (Linear)    (Quad)   (Total)
    R1        2.32156  -0.00848   0.00000  -0.00919  -0.00919   2.31237
    R2        2.80606   0.00731   0.00000   0.02118   0.02118   2.82725
    R3        2.80607   0.00731   0.00000   0.02118   0.02118   2.82725
    R4        2.64521   0.00313   0.00000   0.00670   0.00669   2.65191
    R5        2.64620   0.00326   0.00000   0.00702   0.00699   2.65319
    R6        2.63714  -0.00005   0.00000  -0.00013  -0.00011   2.63703
    R7        2.05654   0.00198   0.00000   0.00556   0.00556   2.06210
    R8        2.63570   0.00442   0.00000   0.00946   0.00949   2.64520
    R9        2.05449   0.00369   0.00000   0.01034   0.01034   2.06483
   R10        2.63652   0.00255   0.00000   0.00552   0.00553   2.64205
   R11        2.05500   0.00377   0.00000   0.01057   0.01057   2.06558
   R12        2.63902   0.00089   0.00000   0.00193   0.00191   2.64093
   R13        2.05482   0.00360   0.00000   0.01012   0.01012   2.06494
   R14        2.05390   0.00338   0.00000   0.00946   0.00946   2.06336
   R15        2.64620   0.00327   0.00000   0.00702   0.00699   2.65319
   R16        2.64521   0.00313   0.00000   0.00670   0.00669   2.65191
   R17        2.63902   0.00089   0.00000   0.00193   0.00191   2.64093
   R18        2.05390   0.00338   0.00000   0.00946   0.00946   2.06336
   R19        2.63652   0.00255   0.00000   0.00552   0.00553   2.64205
   R20        2.05482   0.00360   0.00000   0.01012   0.01012   2.06494
   R21        2.63570   0.00442   0.00000   0.00946   0.00949   2.64520
   R22        2.05500   0.00376   0.00000   0.01057   0.01057   2.06558
   R23        2.63714  -0.00005   0.00000  -0.00013  -0.00011   2.63703
   R24        2.05449   0.00369   0.00000   0.01034   0.01034   2.06483
   R25        2.05654   0.00198   0.00000   0.00556   0.00556   2.06210
    A1        2.08092   0.00563   0.00000   0.02207   0.02207   2.10299
    A2        2.08092   0.00563   0.00000   0.02207   0.02207   2.10299
    A3        2.12134  -0.01126   0.00000  -0.04414  -0.04414   2.07720
    A4        2.06728   0.00103   0.00000   0.00413   0.00419   2.07147
    A5        2.12406   0.00045   0.00000   0.00189   0.00194   2.12600
    A6        2.09120  -0.00148   0.00000  -0.00618  -0.00629   2.08491
    A7        2.09567   0.00074   0.00000   0.00306   0.00300   2.09867
    A8        2.09675  -0.00354   0.00000  -0.02073  -0.02070   2.07604
    A9        2.09077   0.00280   0.00000   0.01767   0.01769   2.10846
   A10        2.09400   0.00033   0.00000   0.00154   0.00152   2.09552
   A11        2.09284  -0.00022   0.00000  -0.00111  -0.00110   2.09174
   A12        2.09633  -0.00011   0.00000  -0.00044  -0.00043   2.09590
   A13        2.09667  -0.00062   0.00000  -0.00248  -0.00253   2.09415
   A14        2.09247   0.00053   0.00000   0.00264   0.00264   2.09511
   A15        2.09397   0.00009   0.00000  -0.00003  -0.00004   2.09393
   A16        2.09605  -0.00034   0.00000  -0.00135  -0.00147   2.09458
   A17        2.09258   0.00054   0.00000   0.00296   0.00296   2.09554
   A18        2.09450  -0.00019   0.00000  -0.00145  -0.00145   2.09305
   A19        2.09240   0.00139   0.00000   0.00600   0.00588   2.09829
   A20        2.11358  -0.00339   0.00000  -0.01936  -0.01930   2.09427
   A21        2.07703   0.00200   0.00000   0.01333   0.01339   2.09042
   A22        2.12406   0.00045   0.00000   0.00189   0.00194   2.12600
   A23        2.06728   0.00103   0.00000   0.00413   0.00419   2.07147
   A24        2.09120  -0.00148   0.00000  -0.00618  -0.00629   2.08491
   A25        2.09240   0.00139   0.00000   0.00601   0.00589   2.09829
   A26        2.11358  -0.00339   0.00000  -0.01936  -0.01931   2.09427
   A27        2.07703   0.00200   0.00000   0.01333   0.01339   2.09042
   A28        2.09605  -0.00034   0.00000  -0.00135  -0.00147   2.09458
   A29        2.09450  -0.00019   0.00000  -0.00145  -0.00145   2.09305
   A30        2.09258   0.00054   0.00000   0.00296   0.00296   2.09554
   A31        2.09667  -0.00062   0.00000  -0.00248  -0.00253   2.09415
   A32        2.09397   0.00009   0.00000  -0.00003  -0.00004   2.09393
   A33        2.09247   0.00053   0.00000   0.00264   0.00263   2.09511
   A34        2.09400   0.00033   0.00000   0.00154   0.00152   2.09552
   A35        2.09632  -0.00011   0.00000  -0.00044  -0.00043   2.09589
   A36        2.09284  -0.00022   0.00000  -0.00111  -0.00110   2.09174
   A37        2.09567   0.00074   0.00000   0.00306   0.00300   2.09867
   A38        2.09675  -0.00354   0.00000  -0.02073  -0.02070   2.07604
   A39        2.09077   0.00280   0.00000   0.01767   0.01769   2.10846
    D1        0.58946  -0.00218   0.00000  -0.14617  -0.14618   0.44327
    D2       -2.51350  -0.00205   0.00000  -0.14142  -0.14140  -2.65491
    D3       -2.55214  -0.00218   0.00000  -0.14616  -0.14618  -2.69832
    D4        0.62809  -0.00205   0.00000  -0.14142  -0.14140   0.48669
    D5       -2.51351  -0.00205   0.00000  -0.14142  -0.14140  -2.65491
    D6        0.58945  -0.00218   0.00000  -0.14616  -0.14618   0.44327
    D7        0.62809  -0.00205   0.00000  -0.14142  -0.14140   0.48668
    D8       -2.55214  -0.00218   0.00000  -0.14617  -0.14619  -2.69833
    D9       -3.13253   0.00048   0.00000   0.01940   0.01936  -3.11317
   D10        0.00767   0.00039   0.00000   0.01549   0.01550   0.02317
   D11       -0.02882   0.00040   0.00000   0.01493   0.01488  -0.01394
   D12        3.11138   0.00031   0.00000   0.01101   0.01101   3.12239
   D13        3.13101  -0.00096   0.00000  -0.03812  -0.03812   3.09289
   D14        0.00962  -0.00095   0.00000  -0.03666  -0.03665  -0.02703
   D15        0.02857  -0.00089   0.00000  -0.03353  -0.03354  -0.00496
   D16       -3.09282  -0.00088   0.00000  -0.03208  -0.03206  -3.12488
   D17        0.01080   0.00020   0.00000   0.00696   0.00691   0.01771
   D18       -3.13822   0.00018   0.00000   0.00640   0.00638  -3.13184
   D19       -3.12941   0.00029   0.00000   0.01089   0.01088  -3.11853
   D20        0.00476   0.00028   0.00000   0.01033   0.01035   0.01510
   D21        0.00752  -0.00026   0.00000  -0.01004  -0.01003  -0.00251
   D22        3.13633   0.00003   0.00000   0.00127   0.00132   3.13765
   D23       -3.12663  -0.00024   0.00000  -0.00948  -0.00949  -3.13613
   D24        0.00218   0.00005   0.00000   0.00184   0.00186   0.00403
   D25       -0.00772  -0.00024   0.00000  -0.00869  -0.00865  -0.01637
   D26        3.12283   0.00022   0.00000   0.00885   0.00891   3.13175
   D27       -3.13652  -0.00053   0.00000  -0.02004  -0.02001   3.12666
   D28       -0.00597  -0.00007   0.00000  -0.00249  -0.00245  -0.00841
   D29       -0.01037   0.00080   0.00000   0.03043   0.03047   0.02010
   D30        3.11144   0.00073   0.00000   0.02862   0.02862   3.14006
   D31       -3.14091   0.00034   0.00000   0.01283   0.01291  -3.12800
   D32       -0.01910   0.00027   0.00000   0.01103   0.01106  -0.00804
   D33        3.13101  -0.00096   0.00000  -0.03812  -0.03812   3.09289
   D34        0.00962  -0.00095   0.00000  -0.03666  -0.03665  -0.02703
   D35        0.02857  -0.00089   0.00000  -0.03353  -0.03353  -0.00496
   D36       -3.09281  -0.00088   0.00000  -0.03208  -0.03206  -3.12488
   D37       -3.13253   0.00048   0.00000   0.01940   0.01936  -3.11317
   D38        0.00767   0.00039   0.00000   0.01549   0.01550   0.02317
   D39       -0.02882   0.00040   0.00000   0.01493   0.01488  -0.01394
   D40        3.11138   0.00031   0.00000   0.01101   0.01101   3.12239
   D41       -0.01037   0.00080   0.00000   0.03042   0.03047   0.02010
   D42       -3.14091   0.00034   0.00000   0.01283   0.01291  -3.12801
   D43        3.11144   0.00073   0.00000   0.02862   0.02862   3.14006
   D44       -0.01910   0.00027   0.00000   0.01103   0.01106  -0.00804
   D45       -0.00772  -0.00024   0.00000  -0.00869  -0.00865  -0.01637
   D46       -3.13652  -0.00053   0.00000  -0.02004  -0.02001   3.12666
   D47        3.12283   0.00022   0.00000   0.00885   0.00891   3.13175
   D48       -0.00596  -0.00007   0.00000  -0.00249  -0.00245  -0.00841
   D49        0.00751  -0.00026   0.00000  -0.01004  -0.01002  -0.00251
   D50       -3.12663  -0.00024   0.00000  -0.00948  -0.00949  -3.13613
   D51        3.13632   0.00003   0.00000   0.00127   0.00133   3.13765
   D52        0.00218   0.00005   0.00000   0.00184   0.00186   0.00403
   D53        0.01080   0.00020   0.00000   0.00695   0.00691   0.01771
   D54       -3.12941   0.00029   0.00000   0.01089   0.01088  -3.11853
   D55       -3.13822   0.00018   0.00000   0.00639   0.00638  -3.13184
   D56        0.00476   0.00028   0.00000   0.01033   0.01035   0.01510
         Item               Value     Threshold  Converged?
 Maximum Force            0.011257     0.000450     NO 
 RMS     Force            0.002432     0.000300     NO 
 Maximum Displacement     0.596631     0.001800     NO 
 RMS     Displacement     0.160816     0.001200     NO 
 Predicted change in Energy=-3.006269D-03
 GradGradGradGradGradGradGradGradGradGradGradGradGradGradGradGradGradGrad

                          Input orientation:                          
 ---------------------------------------------------------------------
 Center     Atomic      Atomic             Coordinates (Angstroms)
 Number     Number       Type             X           Y           Z
 ---------------------------------------------------------------------
      1          8           0        0.217896   -0.823083    2.521062
      2          6           0        0.114341   -0.431913    1.366253
      3          6           0        1.324459   -0.308102    0.495250
      4          6           0        2.442045   -1.108663    0.777089
      5          6           0        3.600069   -0.995366    0.006740
      6          6           0        3.658874   -0.066165   -1.038492
      7          6           0        2.555454    0.747304   -1.313181
      8          6           0        1.387135    0.619216   -0.557079
      9          6           0       -1.224270   -0.070351    0.804334
     10          6           0       -1.504312   -0.176573   -0.567357
     11          6           0       -2.783602    0.114519   -1.048761
     12          6           0       -3.783328    0.536278   -0.167066
     13          6           0       -3.508134    0.648071    1.200835
     14          6           0       -2.237517    0.336058    1.686091
     15          1           0        2.390537   -1.813797    1.608288
     16          1           0        4.463258   -1.628366    0.226122
     17          1           0        4.567457    0.024829   -1.639298
     18          1           0        2.603182    1.479514   -2.122886
     19          1           0        0.528214    1.257500   -0.774013
     20          1           0       -0.726879   -0.507030   -1.259172
     21          1           0       -2.999598    0.017941   -2.115556
     22          1           0       -4.779789    0.777233   -0.546246
     23          1           0       -4.289668    0.972617    1.892056
     24          1           0       -2.015826    0.398330    2.752737
 ---------------------------------------------------------------------
                    Distance matrix (angstroms):
                    1          2          3          4          5
     1  O    0.000000
     2  C    1.223652   0.000000
     3  C    2.365080   1.496115   0.000000
     4  C    2.840747   2.494657   1.403329   0.000000
     5  C    4.217890   3.783656   2.426804   1.395455   0.000000
     6  C    5.008362   4.298870   2.803640   2.421530   1.399779
     7  C    4.757281   3.811686   2.428920   2.797625   2.422872
     8  C    3.594761   2.534577   1.404010   2.424543   2.796756
     9  C    2.365080   1.496115   2.578387   3.810604   4.976551
    10  C    3.594761   2.534577   3.024628   4.272009   5.201414
    11  C    4.757281   3.811686   4.408939   5.668976   6.564844
    12  C    5.008362   4.298871   5.219304   6.507883   7.542592
    13  C    4.217889   3.783656   4.976552   6.218545   7.392787
    14  C    2.840746   2.494657   3.810606   4.981145   6.218546
    15  H    2.556373   2.673809   2.154645   1.091219   2.167430
    16  H    4.892681   4.652362   3.415785   2.158461   1.092663
    17  H    6.078342   5.391863   3.896688   3.411907   2.164735
    18  H    5.705945   4.692757   3.418383   3.890306   3.413813
    19  H    3.909303   2.757924   2.167059   3.415757   3.888608
    20  H    3.909305   2.757925   2.706577   3.814499   4.534698
    21  H    5.705946   4.692758   5.061628   6.264831   7.006178
    22  H    6.078342   5.391864   6.286852   7.580416   8.583118
    23  H    4.892680   4.652362   5.925347   7.133782   8.347175
    24  H    2.556371   2.673809   4.093018   5.103609   6.404777
                    6          7          8          9         10
     6  C    0.000000
     7  C    1.398114   0.000000
     8  C    2.421220   1.397522   0.000000
     9  C    5.219304   4.408940   3.024630   0.000000
    10  C    5.185812   4.229835   2.998974   1.404010   0.000000
    11  C    6.445017   5.382922   4.229836   2.428920   1.397522
    12  C    7.517227   6.445020   5.185815   2.803640   2.421220
    13  C    7.542594   6.564848   5.201418   2.426803   2.796756
    14  C    6.507885   5.668979   4.272012   1.403329   2.424543
    15  H    3.415895   3.888627   3.408106   4.093016   4.752240
    16  H    2.164891   3.413646   3.889417   5.925345   6.192673
    17  H    1.093055   2.162517   3.411590   6.286852   6.168954
    18  H    2.163220   1.092718   2.161165   5.061630   4.694018
    19  H    3.409263   2.158866   1.091884   2.706579   2.496083
    20  H    4.413377   3.514255   2.496081   2.167059   1.091884
    21  H    6.745546   5.659892   4.694018   3.418383   2.161166
    22  H    8.494979   7.375288   6.168957   3.896688   3.411590
    23  H    8.535017   7.561747   6.192677   3.415785   3.889417
    24  H    6.840424   6.127811   4.752243   2.154645   3.408106
                   11         12         13         14         15
    11  C    0.000000
    12  C    1.398114   0.000000
    13  C    2.422872   1.399779   0.000000
    14  C    2.797625   2.421531   1.395454   0.000000
    15  H    6.127808   6.840421   6.404774   5.103608   0.000000
    16  H    7.561742   8.535014   8.347174   7.133782   2.498186
    17  H    7.375286   8.494979   8.583120   7.580419   4.320456
    18  H    5.659894   6.745550   7.006183   6.264836   4.981243
    19  H    3.514259   4.413383   4.534703   3.814503   4.310043
    20  H    2.158866   3.409263   3.888608   3.415757   4.432635
    21  H    1.092718   2.163220   3.413813   3.890306   6.802634
    22  H    2.162516   1.093055   2.164736   3.411907   7.922691
    23  H    3.413646   2.164891   1.092663   2.158461   7.243603
    24  H    3.888627   3.415896   2.167430   1.091219   5.061552
                   16         17         18         19         20
    16  H    0.000000
    17  H    2.494736   0.000000
    18  H    4.317018   2.491654   0.000000
    19  H    4.981271   4.310879   2.484802   0.000000
    20  H    5.513712   5.334545   3.972615   2.219055   0.000000
    21  H    7.992997   7.582031   5.790285   3.972619   2.484801
    22  H    9.582138   9.440968   7.582035   5.334551   4.310879
    23  H    9.281927   9.582142   7.993003   5.513717   4.981271
    24  H    7.243604   7.922695   6.802639   4.432638   4.310043
                   21         22         23         24
    21  H    0.000000
    22  H    2.491654   0.000000
    23  H    4.317018   2.494736   0.000000
    24  H    4.981243   4.320457   2.498187   0.000000
 Stoichiometry    C13H10O
 Framework group  C1[X(C13H10O)]
 Deg. of freedom    66
 Full point group                 C1      NOp   1
 Largest Abelian subgroup         C1      NOp   1
 Largest concise Abelian subgroup C1      NOp   1
                         Standard orientation:                         
 ---------------------------------------------------------------------
 Center     Atomic      Atomic             Coordinates (Angstroms)
 Number     Number       Type             X           Y           Z
 ---------------------------------------------------------------------
      1          8           0        0.000001    2.361651    0.000003
      2          6           0        0.000000    1.138000    0.000002
      3          6           0       -1.288883    0.378829    0.028271
      4          6           0       -2.444951    0.995310   -0.474511
      5          6           0       -3.670939    0.330083   -0.433042
      6          6           0       -3.756349   -0.948411    0.130466
      7          6           0       -2.611880   -1.561071    0.649658
      8          6           0       -1.379218   -0.905433    0.588408
      9          6           0        1.288884    0.378829   -0.028269
     10          6           0        1.379216   -0.905435   -0.588403
     11          6           0        2.611877   -1.561073   -0.649656
     12          6           0        3.756348   -0.948412   -0.130469
     13          6           0        3.670941    0.330083    0.433036
     14          6           0        2.444954    0.995311    0.474507
     15          1           0       -2.368542    2.000801   -0.891535
     16          1           0       -4.565291    0.812527   -0.834659
     17          1           0       -4.717562   -1.467613    0.166082
     18          1           0       -2.678787   -2.555252    1.098165
     19          1           0       -0.488167   -1.386894    0.996371
     20          1           0        0.488164   -1.386897   -0.996362
     21          1           0        2.678783   -2.555256   -1.098160
     22          1           0        4.717561   -1.467615   -0.166088
     23          1           0        4.565294    0.812528    0.834648
     24          1           0        2.368545    2.000802    0.891529
 ---------------------------------------------------------------------
 Rotational constants (GHZ):           1.6777562           0.4196927           0.3527017
 Standard basis: def2SVP (5D, 7F)
 There are   260 symmetry adapted cartesian basis functions of A   symmetry.
 There are   246 symmetry adapted basis functions of A   symmetry.
   246 basis functions,   420 primitive gaussians,   260 cartesian basis functions
    48 alpha electrons       48 beta electrons
       nuclear repulsion energy       775.4085140033 Hartrees.
 NAtoms=   24 NActive=   24 NUniq=   24 SFac= 1.00D+00 NAtFMM=   60 NAOKFM=F Big=F
 Integral buffers will be    131072 words long.
 Raffenetti 2 integral format.
 Two-electron integral symmetry is turned on.
 Nuclear repulsion after empirical dispersion term =      775.3572024969 Hartrees.
 One-electron integrals computed using PRISM.
   1 Symmetry operations used in ECPInt.
 ECPInt:  NShTT=    6555 NPrTT=   24083 LenC2=    6207 LenP2D=   16808.
 LDataN:  DoStor=T MaxTD1= 4 Len=   56
 NBasis=   246 RedAO= T EigKep=  2.95D-04  NBF=   246
 NBsUse=   246 1.00D-06 EigRej= -1.00D+00 NBFU=   246
 Initial guess from the checkpoint file:  "/Users/mac_poclab/competitive_ketones/RWCCWEUUXYIKHB-KHWBWMQUSA-N/opt14.chk"
 B after Tr=     0.000000    0.000000    0.000000
         Rot=    0.999994    0.000000   -0.003514    0.000000 Ang=   0.40 deg.
 ExpMin= 1.22D-01 ExpMax= 2.27D+03 ExpMxC= 3.41D+02 IAcc=2 IRadAn=         4 AccDes= 0.00D+00
 Harris functional with IExCor=  402 and IRadAn=       4 diagonalized for initial guess.
 HarFok:  IExCor=  402 AccDes= 0.00D+00 IRadAn=         4 IDoV= 1 UseB2=F ITyADJ=14
 ICtDFT=  3500011 ScaDFX=  1.000000  1.000000  1.000000  1.000000
 FoFCou: FMM=F IPFlag=           0 FMFlag=      100000 FMFlg1=           0
         NFxFlg=           0 DoJE=T BraDBF=F KetDBF=T FulRan=T
         wScrn=  0.000000 ICntrl=       500 IOpCl=  0 I1Cent=   200000004 NGrid=           0
         NMat0=    1 NMatS0=      1 NMatT0=    0 NMatD0=    1 NMtDS0=    0 NMtDT0=    0
 Petite list used in FoFCou.
 Requested convergence on RMS density matrix=1.00D-08 within 128 cycles.
 Requested convergence on MAX density matrix=1.00D-06.
 Requested convergence on             energy=1.00D-06.
 No special actions if energy rises.
 Integral accuracy reduced to 1.0D-05 until final iterations.
 Initial convergence to 1.0D-05 achieved.  Increase integral accuracy.
 SCF Done:  E(RB3LYP) =  -576.268730541     A.U. after   14 cycles
            NFock= 14  Conv=0.89D-08     -V/T= 2.0110
   1 Symmetry operations used in ECPInt.
 ECPInt:  NShTT=    6555 NPrTT=   24083 LenC2=    6207 LenP2D=   16808.
 LDataN:  DoStor=T MaxTD1= 5 Len=  102
 Calling FoFJK, ICntrl=      2127 FMM=F ISym2X=0 I1Cent= 0 IOpClX= 0 NMat=1 NMatS=1 NMatT=0.
 ***** Axes restored to original set *****
 -------------------------------------------------------------------
 Center     Atomic                   Forces (Hartrees/Bohr)
 Number     Number              X              Y              Z
 -------------------------------------------------------------------
      1        8          -0.000477041    0.001802225   -0.005320285
      2        6           0.000704544   -0.002662375    0.007859136
      3        6          -0.001387820   -0.000178839   -0.001286508
      4        6           0.003017221    0.000691924   -0.000565744
      5        6          -0.001085777    0.000020793    0.000864139
      6        6          -0.000207545    0.000015581   -0.000145688
      7        6          -0.000421212   -0.000931274    0.000062541
      8        6           0.004208703    0.002710398   -0.001283154
      9        6           0.001172404    0.000993737   -0.001118700
     10        6          -0.004500289   -0.001609841   -0.001965862
     11        6           0.000475723    0.000725915    0.000543511
     12        6           0.000180542    0.000086729   -0.000156247
     13        6           0.001206919   -0.000479133    0.000489073
     14        6          -0.003101701   -0.000372446   -0.000377645
     15        1          -0.001037521    0.000274750    0.000322754
     16        1          -0.000031509   -0.000000975   -0.000212745
     17        1          -0.000076835    0.000070340    0.000232259
     18        1          -0.000032076    0.000062810    0.000235904
     19        1           0.002699040    0.000449009    0.000923447
     20        1          -0.002537135   -0.001060481    0.000881730
     21        1           0.000065908   -0.000190580    0.000141284
     22        1           0.000108996   -0.000191922    0.000126791
     23        1          -0.000002850    0.000130829   -0.000170645
     24        1           0.001059309   -0.000357174   -0.000079348
 -------------------------------------------------------------------
 Cartesian Forces:  Max     0.007859136 RMS     0.001696356

 GradGradGradGradGradGradGradGradGradGradGradGradGradGradGradGradGradGrad
 Berny optimization.
 Using GEDIIS/GDIIS optimizer.
 FormGI is forming the generalized inverse of G from B-inverse, IUseBI=4.
 Internal  Forces:  Max     0.014154977 RMS     0.002609265
 Search for a local minimum.
 Step number   2 out of a maximum of  144
 All quantities printed in internal units (Hartrees-Bohrs-Radians)
 Mixed Optimization -- RFO/linear search
 Update second derivatives using D2CorX and points    1    2
 DE= -1.32D-03 DEPred=-3.01D-03 R= 4.38D-01
 Trust test= 4.38D-01 RLast= 4.38D-01 DXMaxT set to 3.00D-01
 ITU=  0  0
 Use linear search instead of GDIIS.
     Eigenvalues ---    0.00966   0.00966   0.01497   0.01747   0.01811
     Eigenvalues ---    0.02091   0.02095   0.02111   0.02120   0.02121
     Eigenvalues ---    0.02124   0.02134   0.02142   0.02143   0.02151
     Eigenvalues ---    0.02152   0.02152   0.02153   0.02155   0.02156
     Eigenvalues ---    0.02686   0.14191   0.15996   0.15999   0.15999
     Eigenvalues ---    0.16000   0.16000   0.16000   0.16000   0.16000
     Eigenvalues ---    0.16065   0.21895   0.21998   0.21999   0.22000
     Eigenvalues ---    0.22100   0.23471   0.24185   0.24976   0.25000
     Eigenvalues ---    0.30927   0.33216   0.34014   0.35012   0.35013
     Eigenvalues ---    0.35096   0.35108   0.35114   0.35119   0.35132
     Eigenvalues ---    0.35139   0.35176   0.38408   0.41900   0.41913
     Eigenvalues ---    0.41960   0.42731   0.45316   0.45743   0.45862
     Eigenvalues ---    0.46073   0.46282   0.46404   0.46441   0.46677
     Eigenvalues ---    0.90319
 RFO step:  Lambda=-1.78815597D-03 EMin= 9.65621731D-03
 Quartic linear search produced a step of -0.32363.
 Iteration  1 RMS(Cart)=  0.09290308 RMS(Int)=  0.00145093
 Iteration  2 RMS(Cart)=  0.00255168 RMS(Int)=  0.00021990
 Iteration  3 RMS(Cart)=  0.00000410 RMS(Int)=  0.00021989
 Iteration  4 RMS(Cart)=  0.00000000 RMS(Int)=  0.00021989
 Variable       Old X    -DE/DX   Delta X   Delta X   Delta X     New X
                                 (Linear)    (Quad)   (Total)
    R1        2.31237  -0.00564   0.00298  -0.01045  -0.00747   2.30490
    R2        2.82725   0.00533  -0.00686   0.02524   0.01838   2.84563
    R3        2.82725   0.00533  -0.00686   0.02523   0.01838   2.84563
    R4        2.65191   0.00080  -0.00217   0.00593   0.00381   2.65572
    R5        2.65319   0.00264  -0.00226   0.00893   0.00675   2.65994
    R6        2.63703  -0.00150   0.00004  -0.00233  -0.00231   2.63472
    R7        2.06210   0.00012  -0.00180   0.00411   0.00231   2.06441
    R8        2.64520  -0.00082  -0.00307   0.00522   0.00207   2.64727
    R9        2.06483  -0.00007  -0.00335   0.00709   0.00375   2.06858
   R10        2.64205  -0.00086  -0.00179   0.00250   0.00065   2.64270
   R11        2.06558  -0.00019  -0.00342   0.00703   0.00361   2.06918
   R12        2.64093  -0.00067  -0.00062   0.00045  -0.00015   2.64078
   R13        2.06494  -0.00013  -0.00327   0.00681   0.00354   2.06847
   R14        2.06336  -0.00204  -0.00306   0.00273  -0.00033   2.06303
   R15        2.65319   0.00264  -0.00226   0.00894   0.00675   2.65994
   R16        2.65191   0.00080  -0.00217   0.00593   0.00381   2.65572
   R17        2.64093  -0.00067  -0.00062   0.00045  -0.00015   2.64078
   R18        2.06336  -0.00204  -0.00306   0.00273  -0.00033   2.06303
   R19        2.64205  -0.00086  -0.00179   0.00250   0.00065   2.64270
   R20        2.06494  -0.00013  -0.00327   0.00681   0.00354   2.06847
   R21        2.64520  -0.00082  -0.00307   0.00522   0.00207   2.64727
   R22        2.06558  -0.00019  -0.00342   0.00703   0.00361   2.06918
   R23        2.63703  -0.00150   0.00004  -0.00233  -0.00231   2.63472
   R24        2.06483  -0.00007  -0.00335   0.00709   0.00375   2.06858
   R25        2.06210   0.00012  -0.00180   0.00411   0.00231   2.06441
    A1        2.10299  -0.00708  -0.00714  -0.00329  -0.01044   2.09256
    A2        2.10299  -0.00708  -0.00714  -0.00329  -0.01044   2.09256
    A3        2.07720   0.01415   0.01428   0.00659   0.02087   2.09807
    A4        2.07147  -0.00688  -0.00135  -0.01623  -0.01808   2.05339
    A5        2.12600   0.00971  -0.00063   0.02639   0.02511   2.15111
    A6        2.08491  -0.00289   0.00204  -0.01234  -0.01055   2.07436
    A7        2.09867   0.00190  -0.00097   0.00776   0.00687   2.10554
    A8        2.07604  -0.00210   0.00670  -0.02236  -0.01571   2.06033
    A9        2.10846   0.00020  -0.00573   0.01462   0.00885   2.11731
   A10        2.09552   0.00006  -0.00049   0.00049  -0.00003   2.09549
   A11        2.09174   0.00012   0.00036   0.00013   0.00050   2.09224
   A12        2.09590  -0.00018   0.00014  -0.00063  -0.00048   2.09542
   A13        2.09415  -0.00026   0.00082  -0.00339  -0.00264   2.09150
   A14        2.09511   0.00009  -0.00085   0.00246   0.00165   2.09676
   A15        2.09393   0.00018   0.00001   0.00092   0.00096   2.09489
   A16        2.09458   0.00055   0.00048   0.00044   0.00095   2.09553
   A17        2.09554  -0.00017  -0.00096   0.00177   0.00081   2.09635
   A18        2.09305  -0.00037   0.00047  -0.00222  -0.00175   2.09130
   A19        2.09829   0.00065  -0.00190   0.00655   0.00476   2.10305
   A20        2.09427   0.00058   0.00625  -0.01137  -0.00523   2.08904
   A21        2.09042  -0.00124  -0.00433   0.00448   0.00002   2.09044
   A22        2.12600   0.00971  -0.00063   0.02639   0.02511   2.15111
   A23        2.07147  -0.00688  -0.00135  -0.01623  -0.01808   2.05339
   A24        2.08491  -0.00289   0.00204  -0.01234  -0.01055   2.07436
   A25        2.09829   0.00065  -0.00190   0.00655   0.00476   2.10305
   A26        2.09427   0.00058   0.00625  -0.01137  -0.00524   2.08904
   A27        2.09042  -0.00124  -0.00433   0.00448   0.00002   2.09044
   A28        2.09458   0.00055   0.00048   0.00044   0.00095   2.09553
   A29        2.09305  -0.00037   0.00047  -0.00222  -0.00175   2.09130
   A30        2.09554  -0.00017  -0.00096   0.00177   0.00081   2.09635
   A31        2.09415  -0.00026   0.00082  -0.00338  -0.00264   2.09150
   A32        2.09393   0.00018   0.00001   0.00092   0.00096   2.09489
   A33        2.09511   0.00009  -0.00085   0.00246   0.00165   2.09675
   A34        2.09552   0.00006  -0.00049   0.00049  -0.00003   2.09549
   A35        2.09589  -0.00018   0.00014  -0.00063  -0.00048   2.09542
   A36        2.09174   0.00012   0.00036   0.00013   0.00050   2.09224
   A37        2.09867   0.00190  -0.00097   0.00776   0.00687   2.10554
   A38        2.07604  -0.00210   0.00670  -0.02236  -0.01571   2.06033
   A39        2.10846   0.00020  -0.00573   0.01462   0.00885   2.11731
    D1        0.44327   0.00170   0.04731  -0.04516   0.00201   0.44528
    D2       -2.65491   0.00333   0.04576   0.01380   0.05970  -2.59521
    D3       -2.69832   0.00170   0.04731  -0.04516   0.00201  -2.69631
    D4        0.48669   0.00333   0.04576   0.01380   0.05970   0.54639
    D5       -2.65491   0.00333   0.04576   0.01380   0.05970  -2.59521
    D6        0.44327   0.00170   0.04731  -0.04516   0.00201   0.44528
    D7        0.48668   0.00333   0.04576   0.01380   0.05970   0.54638
    D8       -2.69833   0.00170   0.04731  -0.04516   0.00201  -2.69632
    D9       -3.11317   0.00027  -0.00627   0.03576   0.02873  -3.08444
   D10        0.02317   0.00062  -0.00502   0.04186   0.03615   0.05932
   D11       -0.01394  -0.00100  -0.00481  -0.02079  -0.02543  -0.03937
   D12        3.12239  -0.00066  -0.00356  -0.01469  -0.01800   3.10439
   D13        3.09289  -0.00068   0.01234  -0.05482  -0.04306   3.04983
   D14       -0.02703  -0.00006   0.01186  -0.03694  -0.02556  -0.05259
   D15       -0.00496   0.00106   0.01085   0.00467   0.01545   0.01049
   D16       -3.12488   0.00168   0.01038   0.02255   0.03295  -3.09192
   D17        0.01771   0.00034  -0.00224   0.01888   0.01657   0.03428
   D18       -3.13184   0.00035  -0.00206   0.01716   0.01515  -3.11670
   D19       -3.11853   0.00000  -0.00352   0.01277   0.00897  -3.10956
   D20        0.01510   0.00001  -0.00335   0.01105   0.00755   0.02265
   D21       -0.00251   0.00028   0.00324  -0.00064   0.00268   0.00017
   D22        3.13765  -0.00015  -0.00043  -0.00413  -0.00450   3.13315
   D23       -3.13613   0.00027   0.00307   0.00107   0.00410  -3.13202
   D24        0.00403  -0.00017  -0.00060  -0.00242  -0.00308   0.00095
   D25       -0.01637  -0.00021   0.00280  -0.01535  -0.01250  -0.02886
   D26        3.13175  -0.00068  -0.00288  -0.01266  -0.01564   3.11610
   D27        3.12666   0.00022   0.00648  -0.01187  -0.00532   3.12134
   D28       -0.00841  -0.00024   0.00079  -0.00918  -0.00846  -0.01688
   D29        0.02010  -0.00046  -0.00986   0.01335   0.00334   0.02344
   D30        3.14006  -0.00106  -0.00926  -0.00469  -0.01424   3.12582
   D31       -3.12800   0.00001  -0.00418   0.01068   0.00649  -3.12152
   D32       -0.00804  -0.00060  -0.00358  -0.00736  -0.01109  -0.01914
   D33        3.09289  -0.00068   0.01234  -0.05482  -0.04306   3.04983
   D34       -0.02703  -0.00006   0.01186  -0.03694  -0.02556  -0.05259
   D35       -0.00496   0.00106   0.01085   0.00467   0.01545   0.01049
   D36       -3.12488   0.00168   0.01038   0.02255   0.03295  -3.09192
   D37       -3.11317   0.00027  -0.00627   0.03576   0.02873  -3.08444
   D38        0.02317   0.00062  -0.00502   0.04186   0.03615   0.05932
[...]
 ,-0.00331333,0.00252798,0.00206602,0.00070298,0.00184966,0.00011559,-0
 .00082260,0.00038001,-0.00024665,-0.00017123,0.00029411,0.00000007,0.0
 0000554,0.00002779,-0.00002554,0.00002697,0.00000373,-0.00001393,-0.00
 000172,-0.00001463,-0.00001025,0.00002853,0.00000969,-0.00007585,0.000
 00913,-0.00011312,0.00047951,-0.00139341,-0.00121473,0.23308025,0.0002
 2427,-0.00000273,-0.00014144,-0.00039395,0.00024019,0.00014464,0.00082
 110,0.00403419,0.00323806,-0.00361870,0.00549556,0.00055391,0.13471560
 ,-0.15046342,0.04380807,0.01716487,-0.00755136,0.00274802,0.00006102,0
 .00126843,0.00586462,-0.00079286,-0.00018248,-0.00015080,0.00006779,-0
 .00014767,-0.00001180,0.00001948,-0.00001261,-0.00006513,-0.00001679,0
 .00002568,-0.00000722,0.00000488,-0.00000347,-0.00001937,0.00002019,0.
 00000726,0.00000775,-0.00000974,0.00002457,0.00002406,-0.00107264,-0.0
 0174677,-0.00220406,-0.14650458,0.15115358,-0.00001875,0.00010015,-0.0
 0017820,0.00043926,-0.00045076,0.00066379,0.00445898,0.00307313,0.0016
 1657,0.01345564,-0.01010855,0.00764155,-0.04129864,0.04403791,-0.06251
 771,-0.01858217,0.01341440,-0.00010306,0.00255003,0.00561635,-0.000078
 08,0.00041651,0.00002304,-0.00100959,0.00024458,-0.00003367,-0.0001622
 1,0.00001650,-0.00003494,-0.00006578,-0.00001127,0.00000944,0.00000493
 ,0.00000770,-0.00000049,-0.00001315,0.00001949,-0.00001282,-0.00000694
 ,0.00004487,0.00001891,0.00005045,-0.00159240,-0.00222872,-0.00126121,
 0.04187550,-0.05119056,0.05700030,-0.00001295,0.00004465,0.00008754,-0
 .00000416,-0.00026918,-0.00035780,0.00034199,0.00011308,-0.00076695,0.
 00228739,0.00115016,0.00133190,0.00210010,0.00200141,-0.00079641,-0.25
 822233,-0.01411281,0.12924941,-0.01438086,-0.00417908,0.01407224,-0.00
 130269,0.00492103,-0.00036088,-0.00008266,0.00001855,0.00002403,-0.000
 04393,-0.00004139,0.00002928,0.00003113,-0.00001495,0.00002902,-0.0000
 1567,0.00001324,0.00002509,-0.00003198,0.00000141,-0.00002533,0.000035
 91,-0.00000837,-0.00005387,-0.00005143,0.00009705,-0.00011619,0.000109
 91,-0.00122938,-0.00091033,0.26958076,-0.00001691,0.00020372,-0.000136
 81,-0.00022676,-0.00053846,-0.00042805,0.00029049,-0.00114183,0.000238
 14,0.00170711,0.00056033,0.00581646,-0.01839184,0.00320714,0.01099448,
 -0.01421699,-0.05202771,0.01996230,0.01639416,0.00595442,-0.00999469,0
 .00425112,0.00115320,0.00389014,-0.00011110,0.00005324,0.00005346,-0.0
 0000433,0.00001237,0.00005083,0.00001364,0.00000091,-0.00001300,-0.000
 00967,0.00000334,0.00001821,-0.00001926,-0.00000555,-0.00001701,0.0000
 1327,0.00001993,-0.00003382,-0.00087403,-0.00000435,0.00037779,-0.0008
 7667,-0.00123248,-0.00243432,0.01286381,0.04494375,0.00023543,0.000008
 13,-0.00001912,-0.00034662,-0.00045081,-0.00058621,-0.00081508,-0.0001
 1310,-0.00036344,0.00085958,0.00626292,0.00023130,0.02009036,0.0002549
 6,-0.00623236,0.12920143,0.01986084,-0.12751996,-0.00677987,0.00074857
 ,0.00732515,0.00008173,0.00368359,0.00351262,-0.00003053,0.00004997,0.
 00003671,-0.00002029,-0.00000772,0.00002361,0.00004022,-0.00001489,-0.
 00000378,-0.00000531,0.00000941,0.00003223,-0.00002694,-0.00000572,-0.
 00001758,0.00004150,0.00000101,-0.00001360,0.00079769,-0.00009334,-0.0
 0033756,-0.00127159,-0.00223417,-0.00110526,-0.14084593,-0.02573144,0.
 12633685,-0.00052081,-0.00005927,0.00066032,0.00103334,-0.00081522,0.0
 0030830,-0.00364177,0.00155169,0.00365576,-0.00099624,0.00021920,-0.00
 015742,-0.00267623,0.00407771,0.00093240,0.00603720,0.01724695,-0.0181
 5576,-0.05712693,-0.01059645,0.02056394,0.00199393,-0.01913205,0.01968
 701,-0.00009027,0.00009649,0.00006099,-0.00003055,0.00002692,0.0000492
 4,-0.00000223,0.00000833,-0.00000327,-0.00002687,0.00001101,0.00000025
 ,-0.00001385,0.00000327,-0.00001756,-0.00001009,0.00000482,-0.00006037
 ,-0.00005714,-0.00027117,-0.00019288,0.00013976,0.00078270,-0.00082770
 ,0.00037873,-0.00152364,-0.00085804,0.05513972,-0.00028153,-0.00018146
 ,0.00010255,0.00057785,0.00026633,0.00001084,0.00091146,0.00420289,0.0
 0233005,0.00039568,-0.00007697,-0.00096550,0.00468543,0.00183030,0.002
 70540,-0.00400459,-0.00771415,0.01350892,-0.01023239,-0.18344542,0.148
 46969,0.00154192,0.00206422,0.00088943,-0.00008150,-0.00000729,0.00002
 257,-0.00006801,-0.00000637,0.00004458,0.00001541,-0.00000339,0.000011
 40,-0.00001389,0.00000801,0.00000318,-0.00001092,0.00000161,-0.0000149
 6,0.00000316,-0.00000467,-0.00004644,-0.00025662,-0.00047019,-0.000375
 65,-0.00015437,-0.00038462,0.00070696,-0.00117334,-0.00126211,-0.00225
 092,0.00938923,0.18661495,0.00018685,-0.00007560,-0.00051974,-0.000829
 18,0.00069184,0.00036586,0.00460733,0.00235480,0.00256002,0.00006903,-
 0.00082931,-0.00005661,0.00018664,0.00301964,0.00404909,0.00248808,0.0
 0308544,-0.00044956,0.02090171,0.14829244,-0.19515171,-0.00107607,0.01
 118486,-0.00672901,0.00007525,-0.00007396,-0.00003064,0.00000219,-0.00
 001132,-0.00002088,0.00002284,-0.00002119,-0.00000993,0.00001954,-0.00
 000363,0.00000678,0.00000999,-0.00000519,0.00001192,0.00000535,-0.0000
 0228,0.00005270,-0.00022018,-0.00043841,-0.00045510,0.00017620,0.00015
 691,-0.00005469,-0.00124618,-0.00211728,-0.00146346,-0.02416211,-0.163
 00060,0.19930265,0.00027056,0.00028242,-0.00071906,-0.00081445,-0.0012
 2509,0.00009739,0.00562743,-0.00217582,0.00036537,0.00188731,0.0004650
 7,0.00202203,-0.00001912,-0.00087219,0.00043207,-0.00217249,0.00006538
 ,0.00475908,-0.01403523,0.01700472,-0.00682951,-0.21917404,0.13868308,
 -0.03840783,-0.00082584,-0.00044919,0.00091419,-0.00187444,-0.00180282
 ,-0.00035895,0.00006373,-0.00018284,0.00000265,-0.00008699,0.00020993,
 0.00023687,-0.00026495,-0.00003730,-0.00019781,0.00047624,0.00013287,-
 0.00024443,0.00025086,-0.00011849,0.00026337,-0.00015228,-0.00019652,-
 0.00026659,-0.00072828,0.00071306,-0.00036166,0.00045908,-0.00123616,-
 0.00119850,0.23189099,-0.00016201,0.00055190,-0.00032851,0.00031141,-0
 .00166929,-0.00235516,0.01688462,-0.00799498,0.00234716,-0.00009231,0.
 00089454,0.00577484,-0.00087377,-0.00041021,-0.00004085,0.00041095,0.0
 0392891,0.00304130,-0.00373876,0.00582822,0.00059431,0.13776531,-0.157
 87564,0.04415044,-0.00055270,0.00029352,0.00063085,-0.00033678,0.00019
 609,0.00025806,-0.00024389,0.00012808,-0.00019763,0.00004197,-0.000090
 62,-0.00013420,0.00013553,-0.00009009,0.00003988,-0.00021829,0.0002170
 3,-0.00010451,0.00103295,-0.00032419,0.00014911,-0.00018319,-0.0004851
 5,-0.00050220,-0.00023565,0.00012090,0.00001978,-0.00096847,-0.0014236
 4,-0.00223048,-0.14877706,0.15901899,0.00056015,0.00048205,-0.00054067
 ,-0.00291022,-0.00182780,-0.00067003,-0.01696541,0.01250229,-0.0010320
 8,0.00275890,0.00557376,-0.00018905,0.00021386,-0.00028290,-0.00074679
 ,0.00418696,0.00352751,0.00178164,0.01343105,-0.01007859,0.00749726,-0
 .03850893,0.04371227,-0.06062662,-0.00000709,0.00022315,0.00025465,-0.
 00004478,-0.00017587,0.00042724,0.00024123,-0.00012703,-0.00002224,-0.
 00013518,0.00015146,0.00026277,-0.00021677,0.00003103,-0.00027461,0.00
 047265,-0.00020309,-0.00024083,-0.00081303,0.00075761,0.00003504,-0.00
 030207,-0.00052988,-0.00043229,0.00060909,-0.00047383,0.00016920,-0.00
 149493,-0.00217551,-0.00139867,0.03927575,-0.05075651,0.05561189,0.000
 28079,-0.00019319,0.00061277,-0.00038297,-0.00077205,-0.00061473,-0.00
 099867,0.00012615,-0.00084341,0.00041937,0.00003445,0.00020724,-0.0001
 9479,-0.00013880,0.00012328,-0.00008080,0.00024931,-0.00002677,0.00000
 338,-0.00012387,-0.00009055,-0.00186096,-0.00172983,-0.00043315,0.0086
 8728,-0.00274963,-0.00473411,-0.18885711,0.06989439,0.12559387,-0.0136
 7774,0.00922643,0.02002968,-0.00349364,0.00237917,-0.00329869,-0.00023
 084,-0.00034350,-0.00091305,0.00100049,0.00118071,-0.00228222,0.000018
 31,0.00000152,0.00001594,-0.00000353,-0.00004370,-0.00003133,0.0000238
 1,0.00002318,0.00001382,0.00002407,0.00000474,-0.00003007,-0.00082671,
 -0.00029303,-0.00026936,0.19982303,0.00036093,0.00022699,0.00090344,-0
 .00130212,-0.00344223,0.00051683,-0.00057570,0.00067255,-0.00026528,0.
 00017703,-0.00009280,0.00020149,-0.00001663,-0.00013305,0.00008582,-0.
 00006079,0.00006051,-0.00002353,-0.00001633,-0.00009310,0.00014968,-0.
 00046418,0.00020835,-0.00031209,0.00330708,0.00179978,-0.00090455,0.06
 904632,-0.07107936,-0.06448876,0.00353990,0.00261141,-0.00462916,0.002
 38160,0.00659533,-0.00019605,-0.00051508,-0.00074110,0.00012135,0.0011
 5774,0.00612309,-0.00138268,0.00003669,-0.00001819,0.00001669,-0.00001
 484,-0.00002863,-0.00000360,0.00003426,-0.00001796,-0.00000370,-0.0000
 2252,0.00000074,0.00000497,-0.00045757,-0.00076794,-0.00032655,-0.0754
 4248,0.06260630,-0.00062929,0.00010270,-0.00022602,0.00273383,0.000079
 75,0.00067143,-0.00019490,0.00007020,0.00004842,-0.00058050,0.00028137
 ,0.00012589,0.00024216,0.00012112,-0.00030183,0.00018336,-0.00035207,0
 .00010546,-0.00031339,0.00008326,0.00025930,0.00017802,0.00036680,0.00
 040145,0.02110473,-0.00880721,-0.01388670,0.12509680,-0.06420883,-0.17
 773979,-0.00918371,0.00367341,0.01035660,-0.00260869,-0.00065106,0.000
 43637,-0.00075348,0.00034789,-0.00020418,-0.00321567,-0.00123364,-0.00
 453079,0.00003350,-0.00003615,-0.00001944,0.00001985,0.00000603,0.0000
 1021,0.00002729,-0.00001613,-0.00000807,0.00002862,0.00003707,-0.00001
 544,0.00021293,-0.00031364,0.00017049,-0.13378335,0.06979262,0.1840925
 9,-0.00067157,0.00037127,-0.00052239,0.00107734,-0.00050335,-0.0009238
 9,-0.00010871,0.00011902,0.00002937,0.00000104,-0.00003920,0.00005966,
 -0.00001219,-0.00000964,0.00002067,-0.00002917,0.00000740,0.00001252,-
 0.00000416,0.00000819,0.00000848,-0.00004081,0.00005318,-0.00002006,-0
 .00467071,0.00287060,-0.00107819,-0.00220098,-0.00382991,-0.02878227,-
 0.07122209,-0.00242408,-0.06343334,0.00886101,0.00277637,0.02221054,-0
 .00224983,0.00301477,0.00225245,-0.00090736,0.00010172,0.00051795,0.00
 002424,-0.00001778,-0.00001520,-0.00001079,-0.00000054,0.00000380,-0.0
 0000467,-0.00000289,0.00000080,-0.00002252,-0.00001652,0.00000768,0.00
 002191,0.00000302,-0.00004398,0.00075076,-0.00133137,0.00056898,0.0706
 2978,-0.00011653,-0.00027968,0.00005905,0.00000749,0.00061492,0.000158
 42,-0.00002686,-0.00003561,-0.00002555,0.00000620,-0.00000864,0.000002
 83,-0.00000255,-0.00000493,0.00000396,-0.00000150,0.00000776,-0.000002
 18,0.00002427,-0.00000881,-0.00001548,-0.00005831,0.00000415,-0.000017
 55,0.00294853,0.00620666,-0.00041256,0.00143884,0.00450939,0.00611575,
 -0.00196415,-0.04441687,-0.03580360,-0.00303604,0.00299578,-0.00921751
 ,0.00308979,0.00578710,-0.00210905,0.00039800,-0.00091028,0.00025346,0
 .00000125,-0.00000137,0.00000296,0.00000467,0.00000065,0.00000283,0.00
 000185,0.00000032,0.00000050,-0.00000950,-0.00000227,0.00000151,-0.000
 01623,0.00001428,-0.00001346,-0.00137043,-0.00370705,0.00081640,0.0003
 8837,0.03357989,-0.00028944,0.00017353,-0.00027075,0.00085851,-0.00035
 185,-0.00002673,-0.00009460,0.00004194,0.00001613,0.00000876,-0.000037
 41,0.00004554,-0.00000928,-0.00000645,0.00001680,-0.00001821,0.0000015
 9,0.00000932,-0.00000978,0.00001918,-0.00000258,-0.00004293,0.00001984
 ,-0.00002115,-0.00222021,-0.00048774,0.00158519,0.00076856,-0.00185307
 ,-0.00497926,-0.06349199,-0.03555246,-0.32008509,-0.00760087,-0.001221
 18,-0.01398328,0.00322948,-0.00236205,-0.00033410,0.00045164,0.0001596
 6,0.00068782,0.00001655,-0.00001149,-0.00001090,-0.00001148,0.00000157
 ,0.00000185,-0.00000705,-0.00000167,0.00000151,-0.00001074,-0.00000718
 ,0.00000871,0.00001743,0.00001936,-0.00002683,0.00016864,0.00084386,0.
 00059305,0.06837652,0.03959731,0.33684764,-0.00006073,0.00008942,-0.00
 002340,0.00007148,-0.00034514,0.00008002,-0.00008402,0.00001851,0.0000
 0497,0.00003709,-0.00003607,0.00003208,-0.00002406,-0.00001386,0.00002
 376,-0.00001756,0.00002093,-0.00000658,0.00001943,0.00000876,-0.000033
 69,-0.00004627,-0.00001633,-0.00003878,0.00058917,-0.00033329,0.000498
 94,-0.00070505,0.00295671,0.00333166,-0.01418443,0.00356041,-0.0099141
 7,-0.29683120,0.05904867,-0.08422481,-0.00211825,0.00204559,0.00098214
 ,0.00193280,0.00120943,-0.00149691,0.00000731,-0.00000107,-0.00000225,
 -0.00000843,0.00000172,0.00000066,-0.00000657,0.00000184,0.00000304,-0
 .00000355,-0.00000326,0.00000753,0.00001964,0.00004426,-0.00000479,-0.
 00071247,0.00011474,-0.00046676,0.00055216,-0.00133446,0.00027609,0.31
 143674,0.00015370,0.00007191,0.00017214,-0.00030889,-0.00102053,0.0001
 8840,-0.00011625,0.00009228,0.00001058,0.00004395,-0.00000818,0.000033
 37,-0.00002918,-0.00002340,0.00002055,-0.00001673,0.00002786,-0.000020
 23,0.00003755,-0.00001190,-0.00000272,-0.00002663,0.00003532,-0.000039
 30,-0.00027981,-0.00082835,-0.00049122,0.00266736,0.00602664,-0.002540
 29,0.00876832,0.00271925,0.00385345,0.05892212,-0.05377916,0.01562173,
 -0.00300013,0.00509195,-0.00178184,0.00143087,0.00643900,-0.00151376,0
 .00000167,0.00000438,0.00000355,-0.00000178,-0.00000476,-0.00000162,0.
 00000300,0.00000035,0.00000019,-0.00000187,-0.00000007,0.00000135,0.00
 002946,-0.00001994,-0.00000066,0.00034906,-0.00005334,0.00019710,-0.00
 139531,-0.00361243,0.00086806,-0.06585559,0.04243887,-0.00017036,0.000
 02744,0.00016046,0.00009550,0.00021821,-0.00017977,-0.00003004,-0.0000
 0964,-0.00000097,-0.00002886,0.00000766,0.00001332,0.00001318,0.000006
 04,-0.00000766,0.00000331,-0.00001687,0.00000960,-0.00002545,0.0000043
 2,0.00002073,0.00001985,0.00002165,0.00000300,0.00062527,-0.00011927,-
 0.00092410,0.00256414,-0.00241974,-0.00195845,0.01967095,-0.00457770,0
 .01036389,-0.08425498,0.01570250,-0.08715960,-0.02852177,0.00667623,-0
 .00389884,-0.00076091,-0.00189041,-0.00529278,0.00000677,-0.00000756,-
 0.00000414,-0.00000227,0.00000108,0.00000092,0.,-0.00000120,0.00000089
 ,-0.00000146,-0.00000112,0.00000080,-0.00000009,-0.00001540,-0.0000019
 1,0.00090474,-0.00019041,0.00032763,-0.00025131,0.00096483,0.00071343,
 0.09076952,-0.01537032,0.08698575,0.00004842,0.00008219,-0.00045773,-0
 .00004577,0.00002005,0.00175043,-0.00033415,0.00003874,-0.00030516,-0.
 00006199,-0.00007000,0.00010998,-0.00001207,0.00003034,0.00001172,-0.0
 0001245,-0.00001030,0.00001170,-0.00002290,0.00002125,0.00001789,-0.00
 000642,0.00002891,-0.00002037,-0.00340631,0.00288078,-0.00353344,-0.00
 012444,-0.00033725,-0.00091040,0.00125779,0.00127947,-0.00202460,0.008
 51382,-0.00251707,-0.00708520,-0.19278777,0.06535306,0.12619434,-0.014
 70181,0.00873844,0.02040935,0.00001271,-0.00001196,-0.00001467,-0.0000
 2072,0.00000302,0.00000771,-0.00000792,-0.00000324,0.00000209,-0.00000
 904,-0.00000423,0.00001333,-0.00000459,-0.00000144,-0.00002355,-0.0000
 8219,-0.00026240,0.00014356,0.00026188,-0.00009537,-0.00037154,0.00034
 655,-0.00114371,0.00057884,0.20042201,0.00020510,-0.00007291,0.0001568
 2,-0.00013311,0.00024505,-0.00035564,0.00019210,-0.00016195,-0.0000474
 2,0.00000976,0.00005207,-0.00001741,0.00002645,0.00000265,-0.00000657,
 0.00001135,-0.00001666,0.00001572,-0.00001933,0.00001923,0.00002210,0.
 00003781,-0.00007745,0.00004766,0.00285168,0.00652771,-0.00044784,-0.0
 0026422,-0.00058761,0.00050715,0.00116085,0.00646863,-0.00128164,0.002
 44858,0.00302986,-0.00105459,0.06532152,-0.06758115,-0.05901505,0.0035
 6805,0.00240018,-0.00484011,-0.00000539,0.00000133,0.00000611,0.000005
 14,-0.00000575,-0.00000740,0.00000083,-0.00000302,-0.00000415,0.000001
 11,0.00000309,-0.00000007,-0.00005641,-0.00001614,-0.00001634,-0.00024
 698,-0.00099531,0.00017620,0.00011887,0.00015752,-0.00003241,-0.001233
 27,-0.00358530,0.00070003,-0.07249797,0.05808522,0.00012879,-0.0000361
 7,-0.00004469,-0.00048068,0.00010110,0.00046919,-0.00012273,0.00000964
 ,-0.00006044,-0.00002739,-0.00000680,0.00000909,-0.00000222,0.00001291
 ,-0.00000052,-0.00000106,-0.00000063,-0.00000145,0.00000433,-0.0000021
 4,0.00000874,-0.00000134,0.00001952,0.00000555,-0.00260898,-0.00023451
 ,0.00053136,-0.00091208,0.00034252,-0.00036443,-0.00298261,-0.00110158
 ,-0.00447005,0.02264372,-0.00943910,-0.01362775,0.12613405,-0.05925665
 ,-0.17634822,-0.00895202,0.00352744,0.01028854,-0.00000556,0.00000050,
 -0.00000230,-0.00000057,0.00000029,0.00000215,0.00000172,-0.00000078,-
 0.00000133,-0.00000190,-0.00000131,-0.00000234,-0.00000076,-0.00001422
 ,-0.00000122,0.00010878,0.00014871,0.00000778,0.00102236,-0.00047921,-
 0.00071895,0.00006776,0.00086052,0.00101092,-0.13459772,0.06488870,0.1
 8272690,-0.00054728,-0.00032109,-0.00156654,-0.00009244,-0.00131135,0.
 00326057,0.00029066,0.00033392,-0.00035048,-0.00000753,0.00003159,-0.0
 0004646,-0.00002646,0.00003309,-0.00003834,0.00002855,0.00002329,-0.00
 002707,0.00003564,0.00000178,-0.00005632,0.00018353,-0.00009445,0.0000
 7527,0.00878702,0.00192875,0.02004679,-0.00272488,0.00290204,0.0022983
 8,-0.00093001,0.00003486,0.00038244,-0.00409005,0.00329865,-0.00116430
 ,-0.00134276,-0.00232981,-0.02747317,-0.07201271,-0.00233705,-0.066643
 01,-0.00006046,0.00004544,0.00002991,0.00001450,-0.00000724,-0.0000020
 5,0.00000636,0.00000563,-0.00000582,0.00002225,0.00001243,-0.00001726,
 0.00001166,0.00004734,-0.00000957,0.00037114,0.00032572,0.00115610,-0.
 00002457,-0.00027731,0.00000595,-0.00020978,-0.00023118,-0.00120457,0.
 00077736,-0.00150251,0.00058613,0.07154025,0.00040771,-0.00014526,0.00
 109426,-0.00111382,-0.00320767,-0.00000405,-0.00023288,0.00017631,0.00
 024516,-0.00001962,-0.00001584,0.00016321,-0.00000666,-0.00002441,-0.0
 0003412,-0.00000886,-0.00002011,0.00002383,-0.00004650,-0.00004514,0.0
 0004411,-0.00013666,0.00010445,-0.00009152,-0.00386253,0.00416815,-0.0
 0898522,0.00324473,0.00509794,-0.00170771,-0.00003145,-0.00088667,0.00
 005783,0.00302037,0.00645334,-0.00079204,0.00193184,0.00540364,0.00629
 916,-0.00081106,-0.04318344,-0.02333155,0.00005039,-0.00001489,-0.0000
 1290,-0.00001698,0.00000181,0.00000652,-0.00000018,-0.00000047,0.00001
 010,-0.00001928,-0.00000952,0.00001556,0.00001770,-0.00002462,0.000026
 87,-0.00002160,0.00026498,-0.00053319,-0.00026218,-0.00089049,0.000179
 05,0.00005135,-0.00000044,0.00028965,-0.00152130,-0.00388931,0.0006612
 6,-0.00061254,0.03068765,-0.00167354,0.00018665,0.00219424,-0.00164932
 ,0.00175972,-0.00293333,0.00011043,-0.00006864,0.00015760,-0.00001171,
 0.00005186,0.00001169,0.00001045,-0.00003357,0.00000898,-0.00000580,-0
 .00000653,0.00000928,-0.00001788,0.00000490,0.00001376,-0.00000807,0.0
 0000650,-0.00001077,-0.00468694,-0.00137080,-0.01536940,0.00314402,-0.
 00177866,-0.00058532,0.00028687,0.00013643,0.00071770,-0.00152896,-0.0
 0024174,0.00137587,0.00115757,-0.00137674,-0.00302788,-0.06567020,-0.0
 2418544,-0.32510638,0.00001623,-0.00001650,0.00000877,0.00000154,-0.00
 000056,-0.00000457,0.00000031,-0.00000177,0.00000165,-0.00000269,-0.00
 000344,-0.00000075,-0.00001396,-0.00003177,-0.00000636,-0.00042799,-0.
 00005910,-0.00067442,-0.00002116,0.00011635,-0.00006736,0.00013396,-0.
 00006905,-0.00018311,0.00009344,0.00060615,0.00058347,0.07076341,0.026
 37574,0.34288664\\-0.00000067,0.00000166,-0.00000804,0.00000083,-0.000
 00009,0.00000854,0.00000564,-0.00004116,0.00004081,-0.00007605,0.00001
 645,0.00001611,0.00004659,0.00003790,-0.00005338,0.00003707,-0.0000488
 1,0.00003288,-0.00006307,0.00002066,0.00002015,0.00005010,0.00002297,-
 0.00007737,0.00000300,0.00000627,0.00005717,-0.00006315,0.00002563,-0.
 00006624,0.00006433,-0.00002510,-0.00000691,-0.00002864,0.00001697,0.0
 0006106,-0.00005646,-0.00000041,-0.00005718,0.00007663,-0.00001871,-0.
 00000941,0.00001239,0.00000187,-0.00000708,-0.00001289,0.00000072,0.00
 000599,-0.00001183,0.00000327,0.00000227,0.00000265,-0.00000573,0.0000
 0623,-0.00000074,-0.00000240,0.00001626,0.00000351,-0.00000790,0.00001
 401,-0.00000132,0.00000067,0.00000874,0.00001184,-0.00000335,-0.000002
 09,0.00001363,-0.00000348,0.00000218,-0.00001341,0.00000209,-0.0000047
 1\\\@


 THERE IS NO SUBJECT, HOWEVER COMPLEX,
 WHICH, IF STUDIED WITH PATIENCE AND INTELLIGIENCE
 WILL NOT BECOME
 MORE COMPLEX
                        QUOTED BY D. GORDON ROHMAN
 Job cpu time:       0 days  0 hours  1 minutes  7.7 seconds.
 Elapsed time:       0 days  0 hours  1 minutes 11.6 seconds.
 File lengths (MBytes):  RWF=    170 Int=      0 D2E=      0 Chk=      6 Scr=      1
 Normal termination of Gaussian 16 at Fri Jun 20 00:36:24 2025.
