 Entering Gaussian System, Link 0=g16
 Initial command:
 /Applications/g16/l1.exe "/Users/mac_poclab/competitive_ketones/RWCCWEUUXYIKHB-KHWBWMQUSA-N/Gau-99633.inp" -scrdir="/Users/mac_poclab/competitive_ketones/RWCCWEUUXYIKHB-KHWBWMQUSA-N/"
 Entering Link 1 = /Applications/g16/l1.exe PID=     99634.
  
 Copyright (c) 1988,1990,1992,1993,1995,1998,2003,2009,2016,
            Gaussian, Inc.  All Rights Reserved.
  
 This is part of the Gaussian(R) 16 program.  It is based on
 the Gaussian(R) 09 system (copyright 2009, Gaussian, Inc.),
 the Gaussian(R) 03 system (copyright 2003, Gaussian, Inc.),
 the Gaussian(R) 98 system (copyright 1998, Gaussian, Inc.),
 the Gaussian(R) 94 system (copyright 1995, Gaussian, Inc.),
 the Gaussian 92(TM) system (copyright 1992, Gaussian, Inc.),
 the Gaussian 90(TM) system (copyright 1990, Gaussian, Inc.),
 the Gaussian 88(TM) system (copyright 1988, Gaussian, Inc.),
 the Gaussian 86(TM) system (copyright 1986, Carnegie Mellon
 University), and the Gaussian 82(TM) system (copyright 1983,
 Carnegie Mellon University). Gaussian is a federally registered
 trademark of Gaussian, Inc.
  
 This software contains proprietary and confidential information,
 including trade secrets, belonging to Gaussian, Inc.
  
 This software is provided under written license and may be
 used, copied, transmitted, or stored only in accord with that
 written license.
  
 The following legend is applicable only to US Government
 contracts under FAR:
  
                    RESTRICTED RIGHTS LEGEND
  
 Use, reproduction and disclosure by the US Government is
 subject to restrictions as set forth in subparagraphs (a)
 and (c) of the Commercial Computer Software - Restricted
 Rights clause in FAR 52.227-19.
  
 Gaussian, Inc.
 340 Quinnipiac St., Bldg. 40, Wallingford CT 06492
  
  
 ---------------------------------------------------------------
 Warning -- This program may not be used in any manner that
 competes with the business of Gaussian, Inc. or will provide
 assistance to any competitor of Gaussian, Inc.  The licensee
 of this program is prohibited from giving any competitor of
 Gaussian, Inc. access to this program.  By using this program,
 the user acknowledges that Gaussian, Inc. is engaged in the
 business of creating and licensing software in the field of
 computational chemistry and represents and warrants to the
 licensee that it is not a competitor of Gaussian, Inc. and that
 it will not use this program in any manner prohibited above.
 ---------------------------------------------------------------
  

 Cite this work as:
 Gaussian 16, Revision A.03,
 M. J. Frisch, G. W. Trucks, H. B. Schlegel, G. E. Scuseria, 
 M. A. Robb, J. R. Cheeseman, G. Scalmani, V. Barone, 
 G. A. Petersson, H. Nakatsuji, X. Li, M. Caricato, A. V. Marenich, 
 J. Bloino, B. G. Janesko, R. Gomperts, B. Mennucci, H. P. Hratchian, 
 J. V. Ortiz, A. F. Izmaylov, J. L. Sonnenberg, D. Williams-Young, 
 F. Ding, F. Lipparini, F. Egidi, J. Goings, B. Peng, A. Petrone, 
 T. Henderson, D. Ranasinghe, V. G. Zakrzewski, J. Gao, N. Rega, 
 G. Zheng, W. Liang, M. Hada, M. Ehara, K. Toyota, R. Fukuda, 
 J. Hasegawa, M. Ishida, T. Nakajima, Y. Honda, O. Kitao, H. Nakai, 
 T. Vreven, K. Throssell, J. A. Montgomery, Jr., J. E. Peralta, 
 F. Ogliaro, M. J. Bearpark, J. J. Heyd, E. N. Brothers, K. N. Kudin, 
 V. N. Staroverov, T. A. Keith, R. Kobayashi, J. Normand, 
 K. Raghavachari, A. P. Rendell, J. C. Burant, S. S. Iyengar, 
 J. Tomasi, M. Cossi, J. M. Millam, M. Klene, C. Adamo, R. Cammi, 
 J. W. Ochterski, R. L. Martin, K. Morokuma, O. Farkas, 
 J. B. Foresman, and D. J. Fox, Gaussian, Inc., Wallingford CT, 2016.
 
 ******************************************
 Gaussian 16:  EM64M-G16RevA.03 25-Dec-2016
                20-Jun-2025 
 ******************************************
 %nprocshared=24
 Will use up to   24 processors via shared memory.
 %mem=30GB
 %chk=/Users/mac_poclab/competitive_ketones/RWCCWEUUXYIKHB-KHWBWMQUSA-N/opt489.ch
 k
 -------------------------------------------------------------
 # freq opt B3LYP/def2SVP EmpiricalDispersion=GD3BJ optcyc=300
 -------------------------------------------------------------
 1/6=300,18=20,19=15,26=3,38=1/1,3;
 2/9=110,12=2,17=6,18=5,40=1/2;
 3/5=43,7=101,11=2,25=1,30=1,71=1,74=-5,124=41/1,2,3;
 4//1;
 5/5=2,38=5/2;
 6/7=2,8=2,9=2,10=2,28=1/1;
 7//1,2,3,16;
 1/6=300,18=20,19=15,26=3/3(2);
 2/9=110/2;
 99//99;
 2/9=110/2;
 3/5=43,7=101,11=2,25=1,30=1,71=1,74=-5,124=41/1,2,3;
 4/5=5,16=3,69=1/1;
 5/5=2,38=5/2;
 7//1,2,3,16;
 1/6=300,18=20,19=15,26=3/3(-5);
 2/9=110/2;
 6/7=2,8=2,9=2,10=2,19=2,28=1/1;
 99/9=1/99;
 ---------
 good luck
 ---------
 Symbolic Z-matrix:
 Charge =  0 Multiplicity = 1
 O                     0.04857  -1.37988  -2.11119 
 C                     0.02492  -0.70787  -1.08303 
 C                    -1.28257  -0.26341  -0.53726 
 C                    -1.51646  -0.18583   0.8412 
 C                    -2.76493   0.22511   1.31311 
 C                    -3.78188   0.54608   0.41349 
 C                    -3.55825   0.44886  -0.95979 
 C                    -2.31237   0.03845  -1.43603 
 C                     1.30448  -0.35911  -0.41519 
 C                     2.35613  -1.28154  -0.46587 
 C                     3.57709  -0.98406   0.14094 
 C                     3.75425   0.23896   0.78761 
 C                     2.71581   1.17012   0.82155 
 C                     1.49214   0.87676   0.2159 
 H                    -0.746    -0.45877   1.55758 
 H                    -2.94888   0.28544   2.3831 
 H                    -4.75479   0.86132   0.78313 
 H                    -4.35525   0.68567  -1.66028 
 H                    -2.14469  -0.04732  -2.50788 
 H                     2.22492  -2.23201  -0.97943 
 H                     4.39109  -1.70374   0.10267 
 H                     4.70789   0.47131   1.25575 
 H                     2.86388   2.12943   1.3116 
 H                     0.70491   1.62604   0.22832 
 

 GradGradGradGradGradGradGradGradGradGradGradGradGradGradGradGradGradGrad
 Berny optimization.
 Initialization pass.
                           ----------------------------
                           !    Initial Parameters    !
                           ! (Angstroms and Degrees)  !
 --------------------------                            --------------------------
 ! Name  Definition              Value          Derivative Info.                !
 --------------------------------------------------------------------------------
 ! R1    R(1,2)                  1.2285         estimate D2E/DX2                !
 ! R2    R(2,3)                  1.4849         estimate D2E/DX2                !
 ! R3    R(2,9)                  1.4849         estimate D2E/DX2                !
 ! R4    R(3,4)                  1.4003         estimate D2E/DX2                !
 ! R5    R(3,8)                  1.3998         estimate D2E/DX2                !
 ! R6    R(4,5)                  1.3965         estimate D2E/DX2                !
 ! R7    R(4,15)                 1.0869         estimate D2E/DX2                !
 ! R8    R(5,6)                  1.3952         estimate D2E/DX2                !
 ! R9    R(5,16)                 1.0874         estimate D2E/DX2                !
 ! R10   R(6,7)                  1.3948         estimate D2E/DX2                !
 ! R11   R(6,17)                 1.0875         estimate D2E/DX2                !
 ! R12   R(7,8)                  1.3955         estimate D2E/DX2                !
 ! R13   R(7,18)                 1.0872         estimate D2E/DX2                !
 ! R14   R(8,19)                 1.0883         estimate D2E/DX2                !
 ! R15   R(9,10)                 1.3998         estimate D2E/DX2                !
 ! R16   R(9,14)                 1.4003         estimate D2E/DX2                !
 ! R17   R(10,11)                1.3955         estimate D2E/DX2                !
 ! R18   R(10,20)                1.0883         estimate D2E/DX2                !
 ! R19   R(11,12)                1.3948         estimate D2E/DX2                !
 ! R20   R(11,21)                1.0872         estimate D2E/DX2                !
 ! R21   R(12,13)                1.3952         estimate D2E/DX2                !
 ! R22   R(12,22)                1.0875         estimate D2E/DX2                !
 ! R23   R(13,14)                1.3965         estimate D2E/DX2                !
 ! R24   R(13,23)                1.0874         estimate D2E/DX2                !
 ! R25   R(14,24)                1.0869         estimate D2E/DX2                !
 ! A1    A(1,2,3)              119.2282         estimate D2E/DX2                !
 ! A2    A(1,2,9)              119.2282         estimate D2E/DX2                !
 ! A3    A(3,2,9)              121.5436         estimate D2E/DX2                !
 ! A4    A(2,3,4)              121.6995         estimate D2E/DX2                !
 ! A5    A(2,3,8)              118.4466         estimate D2E/DX2                !
 ! A6    A(4,3,8)              119.817          estimate D2E/DX2                !
 ! A7    A(3,4,5)              119.8858         estimate D2E/DX2                !
 ! A8    A(3,4,15)             121.099          estimate D2E/DX2                !
 ! A9    A(5,4,15)             119.0053         estimate D2E/DX2                !
 ! A10   A(4,5,6)              120.0948         estimate D2E/DX2                !
 ! A11   A(4,5,16)             120.0062         estimate D2E/DX2                !
 ! A12   A(6,5,16)             119.896          estimate D2E/DX2                !
 ! A13   A(5,6,7)              120.1305         estimate D2E/DX2                !
 ! A14   A(5,6,17)             119.9756         estimate D2E/DX2                !
 ! A15   A(7,6,17)             119.8899         estimate D2E/DX2                !
 ! A16   A(6,7,8)              119.9772         estimate D2E/DX2                !
 ! A17   A(6,7,18)             120.1106         estimate D2E/DX2                !
 ! A18   A(8,7,18)             119.9109         estimate D2E/DX2                !
 ! A19   A(3,8,7)              120.0729         estimate D2E/DX2                !
 ! A20   A(3,8,19)             120.1347         estimate D2E/DX2                !
 ! A21   A(7,8,19)             119.7923         estimate D2E/DX2                !
 ! A22   A(2,9,10)             118.4466         estimate D2E/DX2                !
 ! A23   A(2,9,14)             121.6995         estimate D2E/DX2                !
 ! A24   A(10,9,14)            119.8171         estimate D2E/DX2                !
 ! A25   A(9,10,11)            120.0729         estimate D2E/DX2                !
 ! A26   A(9,10,20)            120.1347         estimate D2E/DX2                !
 ! A27   A(11,10,20)           119.7923         estimate D2E/DX2                !
 ! A28   A(10,11,12)           119.9772         estimate D2E/DX2                !
 ! A29   A(10,11,21)           119.9109         estimate D2E/DX2                !
 ! A30   A(12,11,21)           120.1106         estimate D2E/DX2                !
 ! A31   A(11,12,13)           120.1304         estimate D2E/DX2                !
 ! A32   A(11,12,22)           119.8899         estimate D2E/DX2                !
 ! A33   A(13,12,22)           119.9756         estimate D2E/DX2                !
 ! A34   A(12,13,14)           120.0948         estimate D2E/DX2                !
 ! A35   A(12,13,23)           119.896          estimate D2E/DX2                !
 ! A36   A(14,13,23)           120.0062         estimate D2E/DX2                !
 ! A37   A(9,14,13)            119.8857         estimate D2E/DX2                !
 ! A38   A(9,14,24)            121.0991         estimate D2E/DX2                !
 ! A39   A(13,14,24)           119.0052         estimate D2E/DX2                !
 ! D1    D(1,2,3,4)            144.0131         estimate D2E/DX2                !
 ! D2    D(1,2,3,8)            -33.7733         estimate D2E/DX2                !
 ! D3    D(9,2,3,4)            -35.9867         estimate D2E/DX2                !
 ! D4    D(9,2,3,8)            146.2268         estimate D2E/DX2                !
 ! D5    D(1,2,9,10)           -33.7733         estimate D2E/DX2                !
 ! D6    D(1,2,9,14)           144.013          estimate D2E/DX2                !
 ! D7    D(3,2,9,10)           146.2266         estimate D2E/DX2                !
 ! D8    D(3,2,9,14)           -35.9871         estimate D2E/DX2                !
 ! D9    D(2,3,4,5)           -179.3938         estimate D2E/DX2                !
 ! D10   D(2,3,4,15)            -0.5515         estimate D2E/DX2                !
 ! D11   D(8,3,4,5)             -1.637          estimate D2E/DX2                !
 ! D12   D(8,3,4,15)           177.2052         estimate D2E/DX2                !
 ! D13   D(2,3,8,7)            179.4807         estimate D2E/DX2                !
 ! D14   D(2,3,8,19)            -0.4396         estimate D2E/DX2                !
 ! D15   D(4,3,8,7)              1.6514         estimate D2E/DX2                !
 ! D16   D(4,3,8,19)          -178.269          estimate D2E/DX2                !
 ! D17   D(3,4,5,6)              0.5942         estimate D2E/DX2                !
 ! D18   D(3,4,5,16)           179.9611         estimate D2E/DX2                !
 ! D19   D(15,4,5,6)          -178.2723         estimate D2E/DX2                !
 ! D20   D(15,4,5,16)            1.0946         estimate D2E/DX2                !
 ! D21   D(4,5,6,7)              0.4424         estimate D2E/DX2                !
 ! D22   D(4,5,6,17)           179.7093         estimate D2E/DX2                !
 ! D23   D(16,5,6,7)          -178.9252         estimate D2E/DX2                !
 ! D24   D(16,5,6,17)            0.3417         estimate D2E/DX2                !
 ! D25   D(5,6,7,8)             -0.4306         estimate D2E/DX2                !
 ! D26   D(5,6,7,18)           179.1429         estimate D2E/DX2                !
 ! D27   D(17,6,7,8)          -179.6982         estimate D2E/DX2                !
 ! D28   D(17,6,7,18)           -0.1247         estimate D2E/DX2                !
 ! D29   D(6,7,8,3)             -0.6187         estimate D2E/DX2                !
 ! D30   D(6,7,8,19)           179.3019         estimate D2E/DX2                !
 ! D31   D(18,7,8,3)           179.8069         estimate D2E/DX2                !
 ! D32   D(18,7,8,19)           -0.2725         estimate D2E/DX2                !
 ! D33   D(2,9,10,11)          179.4805         estimate D2E/DX2                !
 ! D34   D(2,9,10,20)           -0.4398         estimate D2E/DX2                !
 ! D35   D(14,9,10,11)           1.6513         estimate D2E/DX2                !
 ! D36   D(14,9,10,20)        -178.269          estimate D2E/DX2                !
 ! D37   D(2,9,14,13)         -179.3935         estimate D2E/DX2                !
 ! D38   D(2,9,14,24)           -0.5514         estimate D2E/DX2                !
 ! D39   D(10,9,14,13)          -1.6369         estimate D2E/DX2                !
 ! D40   D(10,9,14,24)         177.2052         estimate D2E/DX2                !
 ! D41   D(9,10,11,12)          -0.6187         estimate D2E/DX2                !
 ! D42   D(9,10,11,21)         179.8069         estimate D2E/DX2                !
 ! D43   D(20,10,11,12)        179.3018         estimate D2E/DX2                !
 ! D44   D(20,10,11,21)         -0.2725         estimate D2E/DX2                !
 ! D45   D(10,11,12,13)         -0.4306         estimate D2E/DX2                !
 ! D46   D(10,11,12,22)       -179.6982         estimate D2E/DX2                !
 ! D47   D(21,11,12,13)        179.1429         estimate D2E/DX2                !
 ! D48   D(21,11,12,22)         -0.1247         estimate D2E/DX2                !
 ! D49   D(11,12,13,14)          0.4423         estimate D2E/DX2                !
 ! D50   D(11,12,13,23)       -178.9252         estimate D2E/DX2                !
 ! D51   D(22,12,13,14)        179.7093         estimate D2E/DX2                !
 ! D52   D(22,12,13,23)          0.3418         estimate D2E/DX2                !
 ! D53   D(12,13,14,9)           0.5942         estimate D2E/DX2                !
 ! D54   D(12,13,14,24)       -178.2722         estimate D2E/DX2                !
 ! D55   D(23,13,14,9)         179.961          estimate D2E/DX2                !
 ! D56   D(23,13,14,24)          1.0946         estimate D2E/DX2                !
 --------------------------------------------------------------------------------
 Trust Radius=3.00D-01 FncErr=1.00D-07 GrdErr=1.00D-06 EigMax=2.50D+02 EigMin=1.00D-04
 Number of steps in this run=    144 maximum allowed number of steps=    144.
 GradGradGradGradGradGradGradGradGradGradGradGradGradGradGradGradGradGrad

                          Input orientation:                          
 ---------------------------------------------------------------------
 Center     Atomic      Atomic             Coordinates (Angstroms)
 Number     Number       Type             X           Y           Z
 ---------------------------------------------------------------------
      1          8           0        0.048573   -1.379879   -2.111188
      2          6           0        0.024918   -0.707874   -1.083034
      3          6           0       -1.282570   -0.263409   -0.537260
      4          6           0       -1.516459   -0.185834    0.841198
      5          6           0       -2.764925    0.225108    1.313113
      6          6           0       -3.781880    0.546082    0.413486
      7          6           0       -3.558250    0.448863   -0.959788
      8          6           0       -2.312374    0.038447   -1.436031
      9          6           0        1.304483   -0.359114   -0.415185
     10          6           0        2.356130   -1.281540   -0.465871
     11          6           0        3.577088   -0.984064    0.140944
     12          6           0        3.754247    0.238958    0.787607
     13          6           0        2.715813    1.170116    0.821547
     14          6           0        1.492138    0.876759    0.215902
     15          1           0       -0.745999   -0.458773    1.557578
     16          1           0       -2.948880    0.285441    2.383103
     17          1           0       -4.754793    0.861318    0.783132
     18          1           0       -4.355251    0.685672   -1.660282
     19          1           0       -2.144686   -0.047315   -2.507884
     20          1           0        2.224917   -2.232008   -0.979425
     21          1           0        4.391086   -1.703735    0.102673
     22          1           0        4.707885    0.471307    1.255753
     23          1           0        2.863877    2.129433    1.311596
     24          1           0        0.704911    1.626042    0.228316
 ---------------------------------------------------------------------
                    Distance matrix (angstroms):
                    1          2          3          4          5
     1  O    0.000000
     2  C    1.228516   0.000000
     3  C    2.344290   1.484905   0.000000
     4  C    3.548472   2.520127   1.400310   0.000000
     5  C    4.713554   3.794101   2.420724   1.396512   0.000000
     6  C    4.975507   4.278281   2.793876   2.418837   1.395188
     7  C    4.204663   3.767270   2.421690   2.795586   2.417749
     8  C    2.835764   2.478817   1.399787   2.422716   2.792389
     9  C    2.344290   1.484905   2.591699   3.092934   4.459642
    10  C    2.835764   2.478817   3.779130   4.231542   5.626720
    11  C    4.204662   3.767269   4.959393   5.203052   6.561799
    12  C    4.975507   4.278280   5.232320   5.288068   6.540333
    13  C    4.713553   3.794100   4.459643   4.444222   5.583293
    14  C    3.548470   2.520125   3.092934   3.251424   4.444222
    15  H    3.865181   2.762100   2.171272   1.086878   2.145581
    16  H    5.653023   4.673784   3.406809   2.156711   1.087363
    17  H    6.039236   5.365685   3.881337   3.403925   2.155277
    18  H    4.885026   4.632609   3.406362   3.882739   3.403283
    19  H    2.596821   2.678380   2.161782   3.410309   3.880584
    20  H    2.596822   2.678379   4.046400   4.636744   6.015952
    21  H    4.885026   4.632609   5.888499   6.143983   7.509600
    22  H    6.039236   5.365685   6.296051   6.272651   7.477085
    23  H    5.653022   4.673783   5.131957   4.976854   5.942211
    24  H    3.865180   2.762099   2.847141   2.931383   3.896044
                    6          7          8          9         10
     6  C    0.000000
     7  C    1.394756   0.000000
     8  C    2.416165   1.395513   0.000000
     9  C    5.232319   4.959394   3.779132   0.000000
    10  C    6.464413   6.182082   4.947576   1.399786   0.000000
    11  C    7.521305   7.360566   6.182082   2.421689   1.395512
    12  C    7.551656   7.521307   6.464415   2.793876   2.416165
    13  C    6.540332   6.561801   5.626722   2.420724   2.792389
    14  C    5.288067   5.203053   4.231544   1.400310   2.422716
    15  H    3.396359   3.881970   3.415033   2.847139   3.794008
    16  H    2.154348   3.401905   3.879682   5.131955   6.222155
    17  H    1.087461   2.153974   3.401060   6.296050   7.531074
    18  H    2.156097   1.087189   2.154654   5.888500   7.095011
    19  H    3.401019   2.154288   1.088275   4.046403   5.094161
    20  H    6.763105   6.374361   5.094160   2.161781   1.088276
    21  H    8.482668   8.303881   7.095011   3.406362   2.154655
    22  H    8.531771   8.557927   7.531076   3.881337   3.401061
    23  H    6.890551   7.016211   6.222158   3.406809   3.879682
    24  H    4.618646   4.579507   3.794011   2.171273   3.415033
                   11         12         13         14         15
    11  C    0.000000
    12  C    1.394755   0.000000
    13  C    2.417748   1.395189   0.000000
    14  C    2.795585   2.418837   1.396512   0.000000
    15  H    4.579505   4.618647   3.896045   2.931381   0.000000
    16  H    7.016208   6.890550   5.942210   4.976852   2.467394
    17  H    8.557925   8.531771   7.477084   6.272650   4.291018
    18  H    8.303881   8.482669   7.509601   6.143984   4.969012
    19  H    6.374362   6.763108   6.015954   4.636746   4.318982
    20  H    2.154288   3.401018   3.880583   3.410308   4.290348
    21  H    1.087191   2.156097   3.403284   3.882740   5.482365
    22  H    2.153974   1.087461   2.155277   3.403926   5.540848
    23  H    3.401905   2.154349   1.087364   2.156712   4.448654
    24  H    3.881970   3.396360   2.145581   1.086879   2.866798
                   16         17         18         19         20
    16  H    0.000000
    17  H    2.480497   0.000000
    18  H    4.299654   2.482087   0.000000
    19  H    4.967817   4.297564   2.478366   0.000000
    20  H    6.664257   7.835281   7.230148   5.118838   0.000000
    21  H    7.939287   9.523110   9.236649   7.230149   2.478366
    22  H    7.741545   9.482497   9.523111   7.835283   4.297565
    23  H    6.191654   7.741545   7.939289   6.664260   4.967818
    24  H    4.448652   5.540848   5.482366   4.290352   4.318982
                   21         22         23         24
    21  H    0.000000
    22  H    2.482088   0.000000
    23  H    4.299656   2.480497   0.000000
    24  H    4.969013   4.291019   2.467394   0.000000
 Stoichiometry    C13H10O
 Framework group  C1[X(C13H10O)]
 Deg. of freedom    66
 Full point group                 C1      NOp   1
 Largest Abelian subgroup         C1      NOp   1
 Largest concise Abelian subgroup C1      NOp   1
                         Standard orientation:                         
 ---------------------------------------------------------------------
 Center     Atomic      Atomic             Coordinates (Angstroms)
 Number     Number       Type             X           Y           Z
 ---------------------------------------------------------------------
      1          8           0       -0.000000    2.316052   -0.000001
      2          6           0       -0.000000    1.087536   -0.000001
      3          6           0        1.294842    0.362474    0.051086
      4          6           0        1.438517   -0.838106    0.757369
      5          6           0        2.677343   -1.481881    0.790649
      6          6           0        3.773520   -0.924133    0.131967
      7          6           0        3.638328    0.282655   -0.554129
      8          6           0        2.402413    0.929716   -0.589949
      9          6           0       -1.294842    0.362473   -0.051085
     10          6           0       -2.402412    0.929714    0.589952
     11          6           0       -3.638327    0.282654    0.554131
     12          6           0       -3.773521   -0.924132   -0.131968
     13          6           0       -2.677343   -1.481880   -0.790650
     14          6           0       -1.438517   -0.838105   -0.757369
     15          1           0        0.603570   -1.273515    1.300128
     16          1           0        2.791268   -2.413908    1.339014
     17          1           0        4.738442   -1.424662    0.163103
     18          1           0        4.496074    0.724022   -1.055575
     19          1           0        2.303028    1.876898   -1.116552
     20          1           0       -2.303026    1.876896    1.116556
     21          1           0       -4.496073    0.724022    1.055578
     22          1           0       -4.738443   -1.424660   -0.163104
     23          1           0       -2.791269   -2.413907   -1.339018
     24          1           0       -0.603571   -1.273515   -1.300130
 ---------------------------------------------------------------------
 Rotational constants (GHZ):           1.6858155           0.4109306           0.3568960
 Standard basis: def2SVP (5D, 7F)
 There are   260 symmetry adapted cartesian basis functions of A   symmetry.
 There are   246 symmetry adapted basis functions of A   symmetry.
   246 basis functions,   420 primitive gaussians,   260 cartesian basis functions
    48 alpha electrons       48 beta electrons
       nuclear repulsion energy       775.0790458533 Hartrees.
 NAtoms=   24 NActive=   24 NUniq=   24 SFac= 1.00D+00 NAtFMM=   60 NAOKFM=F Big=F
 Integral buffers will be    131072 words long.
 Raffenetti 2 integral format.
 Two-electron integral symmetry is turned on.
 Nuclear repulsion after empirical dispersion term =      775.0281577318 Hartrees.
 One-electron integrals computed using PRISM.
   1 Symmetry operations used in ECPInt.
 ECPInt:  NShTT=    6555 NPrTT=   24083 LenC2=    6209 LenP2D=   16784.
 LDataN:  DoStor=T MaxTD1= 4 Len=   56
 NBasis=   246 RedAO= T EigKep=  2.88D-04  NBF=   246
 NBsUse=   246 1.00D-06 EigRej= -1.00D+00 NBFU=   246
 ExpMin= 1.22D-01 ExpMax= 2.27D+03 ExpMxC= 3.41D+02 IAcc=3 IRadAn=         5 AccDes= 0.00D+00
 Harris functional with IExCor=  402 and IRadAn=       5 diagonalized for initial guess.
 HarFok:  IExCor=  402 AccDes= 0.00D+00 IRadAn=         5 IDoV= 1 UseB2=F ITyADJ=14
 ICtDFT=  3500011 ScaDFX=  1.000000  1.000000  1.000000  1.000000
 FoFCou: FMM=F IPFlag=           0 FMFlag=      100000 FMFlg1=           0
         NFxFlg=           0 DoJE=T BraDBF=F KetDBF=T FulRan=T
         wScrn=  0.000000 ICntrl=       500 IOpCl=  0 I1Cent=   200000004 NGrid=           0
         NMat0=    1 NMatS0=      1 NMatT0=    0 NMatD0=    1 NMtDS0=    0 NMtDT0=    0
 Petite list used in FoFCou.
 Requested convergence on RMS density matrix=1.00D-08 within 128 cycles.
 Requested convergence on MAX density matrix=1.00D-06.
 Requested convergence on             energy=1.00D-06.
 No special actions if energy rises.
 Integral accuracy reduced to 1.0D-05 until final iterations.
 Initial convergence to 1.0D-05 achieved.  Increase integral accuracy.
 SCF Done:  E(RB3LYP) =  -576.267412931     A.U. after   15 cycles
            NFock= 15  Conv=0.65D-08     -V/T= 2.0108

 **********************************************************************

            Population analysis using the SCF density.

 **********************************************************************

 Orbital symmetries:
       Occupied  (A) (A) (A) (A) (A) (A) (A) (A) (A) (A) (A) (A)
                 (A) (A) (A) (A) (A) (A) (A) (A) (A) (A) (A) (A)
                 (A) (A) (A) (A) (A) (A) (A) (A) (A) (A) (A) (A)
                 (A) (A) (A) (A) (A) (A) (A) (A) (A) (A) (A) (A)
       Virtual   (A) (A) (A) (A) (A) (A) (A) (A) (A) (A) (A) (A)
                 (A) (A) (A) (A) (A) (A) (A) (A) (A) (A) (A) (A)
                 (A) (A) (A) (A) (A) (A) (A) (A) (A) (A) (A) (A)
                 (A) (A) (A) (A) (A) (A) (A) (A) (A) (A) (A) (A)
                 (A) (A) (A) (A) (A) (A) (A) (A) (A) (A) (A) (A)
                 (A) (A) (A) (A) (A) (A) (A) (A) (A) (A) (A) (A)
                 (A) (A) (A) (A) (A) (A) (A) (A) (A) (A) (A) (A)
                 (A) (A) (A) (A) (A) (A) (A) (A) (A) (A) (A) (A)
                 (A) (A) (A) (A) (A) (A) (A) (A) (A) (A) (A) (A)
                 (A) (A) (A) (A) (A) (A) (A) (A) (A) (A) (A) (A)
                 (A) (A) (A) (A) (A) (A) (A) (A) (A) (A) (A) (A)
                 (A) (A) (A) (A) (A) (A) (A) (A) (A) (A) (A) (A)
                 (A) (A) (A) (A) (A) (A) (A) (A) (A) (A) (A) (A)
                 (A) (A) (A) (A) (A) (A) (A) (A) (A) (A) (A) (A)
                 (A) (A) (A) (A) (A) (A) (A) (A) (A) (A) (A) (A)
                 (A) (A) (A) (A) (A) (A) (A) (A) (A) (A) (A) (A)
                 (A) (A) (A) (A) (A) (A)
 The electronic state is 1-A.
 Alpha  occ. eigenvalues --  -19.11789 -10.27091 -10.20402 -10.20400 -10.20255
 Alpha  occ. eigenvalues --  -10.20255 -10.20170 -10.20170 -10.20082 -10.20081
 Alpha  occ. eigenvalues --  -10.20018 -10.20017 -10.19943 -10.19943  -1.02223
 Alpha  occ. eigenvalues --   -0.86336  -0.85841  -0.77469  -0.75270  -0.74951
 Alpha  occ. eigenvalues --   -0.74759  -0.65332  -0.61831  -0.61145  -0.60438
 Alpha  occ. eigenvalues --   -0.56084  -0.53668  -0.50320  -0.47801  -0.46875
 Alpha  occ. eigenvalues --   -0.46439  -0.45028  -0.44263  -0.43348  -0.43278
 Alpha  occ. eigenvalues --   -0.42259  -0.39960  -0.38118  -0.37097  -0.36615
 Alpha  occ. eigenvalues --   -0.36400  -0.35479  -0.35127  -0.27150  -0.27072
 Alpha  occ. eigenvalues --   -0.26708  -0.26421  -0.24673
 Alpha virt. eigenvalues --   -0.06777  -0.02631  -0.02230  -0.01294   0.04432
 Alpha virt. eigenvalues --    0.05857   0.06224   0.09447   0.09755   0.10957
 Alpha virt. eigenvalues --    0.11645   0.13200   0.14013   0.14225   0.14702
 Alpha virt. eigenvalues --    0.15237   0.16120   0.24025   0.25384   0.26206
 Alpha virt. eigenvalues --    0.27530   0.28178   0.28305   0.28585   0.29952
 Alpha virt. eigenvalues --    0.30588   0.32584   0.33502   0.36059   0.36551
 Alpha virt. eigenvalues --    0.37693   0.40035   0.40819   0.41113   0.42775
 Alpha virt. eigenvalues --    0.43488   0.44496   0.44704   0.46668   0.46872
 Alpha virt. eigenvalues --    0.47781   0.48011   0.48442   0.49307   0.51210
 Alpha virt. eigenvalues --    0.51544   0.52620   0.54400   0.55206   0.56562
 Alpha virt. eigenvalues --    0.57167   0.59444   0.60883   0.61438   0.62702
 Alpha virt. eigenvalues --    0.63464   0.63596   0.64883   0.65290   0.65852
 Alpha virt. eigenvalues --    0.65946   0.66644   0.66926   0.68574   0.69232
 Alpha virt. eigenvalues --    0.70598   0.70834   0.71808   0.72287   0.72835
 Alpha virt. eigenvalues --    0.73717   0.74339   0.75415   0.76269   0.78240
 Alpha virt. eigenvalues --    0.79998   0.80878   0.82539   0.83572   0.86417
 Alpha virt. eigenvalues --    0.90208   0.93301   0.93605   0.96949   1.01731
 Alpha virt. eigenvalues --    1.05594   1.06773   1.07378   1.08510   1.15605
 Alpha virt. eigenvalues --    1.18267   1.19980   1.20935   1.22798   1.23752
 Alpha virt. eigenvalues --    1.24364   1.25370   1.25691   1.26605   1.27484
 Alpha virt. eigenvalues --    1.28215   1.28477   1.30167   1.31207   1.32905
 Alpha virt. eigenvalues --    1.42610   1.48987   1.50334   1.52077   1.54789
 Alpha virt. eigenvalues --    1.64928   1.65053   1.66512   1.67189   1.70147
 Alpha virt. eigenvalues --    1.71219   1.71617   1.71965   1.73341   1.73913
 Alpha virt. eigenvalues --    1.74258   1.74295   1.74814   1.75815   1.76753
 Alpha virt. eigenvalues --    1.77052   1.77167   1.78335   1.79385   1.81847
 Alpha virt. eigenvalues --    1.83468   1.84139   1.89301   1.92231   1.93118
 Alpha virt. eigenvalues --    1.93815   1.95691   1.97334   1.97404   1.97617
 Alpha virt. eigenvalues --    1.98291   1.98833   1.99844   2.05185   2.07875
 Alpha virt. eigenvalues --    2.10124   2.10914   2.12348   2.13516   2.13769
 Alpha virt. eigenvalues --    2.15057   2.15379   2.22425   2.27262   2.27560
 Alpha virt. eigenvalues --    2.28716   2.29322   2.29341   2.30670   2.30827
 Alpha virt. eigenvalues --    2.31779   2.34066   2.34582   2.36162   2.43390
 Alpha virt. eigenvalues --    2.48245   2.49506   2.52759   2.56695   2.60614
 Alpha virt. eigenvalues --    2.61000   2.62497   2.62889   2.64346   2.65374
 Alpha virt. eigenvalues --    2.72106   2.72221   2.72298   2.72706   2.72951
 Alpha virt. eigenvalues --    2.75151   2.77261   2.85969   2.86265   2.87352
 Alpha virt. eigenvalues --    2.87477   2.95736   3.02718   3.05894   3.09769
 Alpha virt. eigenvalues --    3.12540   3.14268   3.18972   3.26613   3.39417
 Alpha virt. eigenvalues --    3.61542   3.63227   3.65641
          Condensed to atoms (all electrons):
               1          2          3          4          5          6
     1  O    7.664877   0.744813  -0.121012  -0.000003  -0.000089  -0.000032
     2  C    0.744813   4.982323   0.222652  -0.082758   0.011961  -0.000949
     3  C   -0.121012   0.222652   5.677901   0.242813   0.114227  -0.174331
     4  C   -0.000003  -0.082758   0.242813   5.151168   0.271268   0.107786
     5  C   -0.000089   0.011961   0.114227   0.271268   5.071306   0.242706
     6  C   -0.000032  -0.000949  -0.174331   0.107786   0.242706   5.135584
     7  C    0.000934   0.016487   0.117358  -0.156891   0.113135   0.220812
     8  C    0.010871  -0.058620   0.192438   0.067878  -0.152002   0.120166
     9  C   -0.121012   0.222652  -0.172290  -0.010623  -0.000893  -0.000010
    10  C    0.010871  -0.058620   0.017170  -0.000098   0.000055   0.000000
    11  C    0.000934   0.016487  -0.000321  -0.000047   0.000000   0.000000
    12  C   -0.000032  -0.000949  -0.000010  -0.000005  -0.000001  -0.000000
    13  C   -0.000089   0.011961  -0.000893  -0.000287  -0.000037  -0.000001
    14  C   -0.000003  -0.082758  -0.010623  -0.001682  -0.000287  -0.000005
    15  H   -0.000019  -0.018807  -0.073213   0.444837  -0.067879   0.015157
    16  H    0.000002  -0.000262   0.017056  -0.074721   0.442616  -0.078320
    17  H    0.000000   0.000029  -0.001661   0.015660  -0.074041   0.440319
    18  H   -0.000008  -0.000415   0.017097  -0.001634   0.015342  -0.078560
    19  H    0.012649  -0.014957  -0.084607   0.015350  -0.002124   0.015490
    20  H    0.012649  -0.014957   0.002297  -0.000072   0.000005   0.000000
    21  H   -0.000008  -0.000415   0.000005  -0.000000  -0.000000   0.000000
    22  H    0.000000   0.000029   0.000001  -0.000000   0.000000  -0.000000
    23  H    0.000002  -0.000262   0.000028  -0.000003   0.000001   0.000000
    24  H   -0.000019  -0.018807   0.007874   0.003120   0.000160  -0.000007
               7          8          9         10         11         12
     1  O    0.000934   0.010871  -0.121012   0.010871   0.000934  -0.000032
     2  C    0.016487  -0.058620   0.222652  -0.058620   0.016487  -0.000949
     3  C    0.117358   0.192438  -0.172290   0.017170  -0.000321  -0.000010
     4  C   -0.156891   0.067878  -0.010623  -0.000098  -0.000047  -0.000005
     5  C    0.113135  -0.152002  -0.000893   0.000055   0.000000  -0.000001
     6  C    0.220812   0.120166  -0.000010   0.000000   0.000000  -0.000000
     7  C    5.126686   0.230090  -0.000321   0.000002  -0.000000   0.000000
     8  C    0.230090   5.151766   0.017170  -0.000632   0.000002   0.000000
     9  C   -0.000321   0.017170   5.677902   0.192437   0.117358  -0.174331
    10  C    0.000002  -0.000632   0.192437   5.151767   0.230090   0.120166
    11  C   -0.000000   0.000002   0.117358   0.230090   5.126687   0.220812
    12  C    0.000000   0.000000  -0.174331   0.120166   0.220812   5.135584
    13  C    0.000000   0.000055   0.114227  -0.152002   0.113135   0.242706
    14  C   -0.000047  -0.000098   0.242812   0.067878  -0.156891   0.107786
    15  H   -0.001964   0.015168   0.007874  -0.000841   0.000005  -0.000007
    16  H    0.015439  -0.001725   0.000028  -0.000002  -0.000000   0.000000
    17  H   -0.074426   0.015086   0.000001   0.000000   0.000000  -0.000000
    18  H    0.445506  -0.076718   0.000005  -0.000000   0.000000   0.000000
    19  H   -0.074386   0.454175   0.002297  -0.000056  -0.000001   0.000000
    20  H   -0.000001  -0.000056  -0.084607   0.454176  -0.074386   0.015490
    21  H    0.000000  -0.000000   0.017097  -0.076717   0.445505  -0.078560
    22  H    0.000000   0.000000  -0.001661   0.015086  -0.074426   0.440319
    23  H   -0.000000  -0.000002   0.017056  -0.001725   0.015438  -0.078320
    24  H    0.000005  -0.000841  -0.073214   0.015168  -0.001964   0.015157
              13         14         15         16         17         18
     1  O   -0.000089  -0.000003  -0.000019   0.000002   0.000000  -0.000008
     2  C    0.011961  -0.082758  -0.018807  -0.000262   0.000029  -0.000415
     3  C   -0.000893  -0.010623  -0.073213   0.017056  -0.001661   0.017097
     4  C   -0.000287  -0.001682   0.444837  -0.074721   0.015660  -0.001634
     5  C   -0.000037  -0.000287  -0.067879   0.442616  -0.074041   0.015342
     6  C   -0.000001  -0.000005   0.015157  -0.078320   0.440319  -0.078560
     7  C    0.000000  -0.000047  -0.001964   0.015439  -0.074426   0.445506
     8  C    0.000055  -0.000098   0.015168  -0.001725   0.015086  -0.076718
     9  C    0.114227   0.242812   0.007874   0.000028   0.000001   0.000005
    10  C   -0.152002   0.067878  -0.000841  -0.000002   0.000000  -0.000000
    11  C    0.113135  -0.156891   0.000005  -0.000000   0.000000   0.000000
    12  C    0.242706   0.107786  -0.000007   0.000000  -0.000000   0.000000
    13  C    5.071306   0.271268   0.000160   0.000001   0.000000  -0.000000
    14  C    0.271268   5.151168   0.003120  -0.000003  -0.000000  -0.000000
    15  H    0.000160   0.003120   0.701684  -0.013607  -0.000301   0.000034
    16  H    0.000001  -0.000003  -0.013607   0.722602  -0.013709  -0.000313
    17  H    0.000000  -0.000000  -0.000301  -0.013709   0.719663  -0.013632
    18  H   -0.000000  -0.000000   0.000034  -0.000313  -0.013632   0.719472
    19  H    0.000005  -0.000072  -0.000211   0.000038  -0.000282  -0.012972
    20  H   -0.002124   0.015350  -0.000017  -0.000000  -0.000000  -0.000000
    21  H    0.015342  -0.001634  -0.000003  -0.000000   0.000000  -0.000000
    22  H   -0.074041   0.015660  -0.000001   0.000000   0.000000   0.000000
    23  H    0.442616  -0.074721   0.000003  -0.000000   0.000000  -0.000000
    24  H   -0.067879   0.444837  -0.000993   0.000003  -0.000001  -0.000003
              19         20         21         22         23         24
     1  O    0.012649   0.012649  -0.000008   0.000000   0.000002  -0.000019
     2  C   -0.014957  -0.014957  -0.000415   0.000029  -0.000262  -0.018807
     3  C   -0.084607   0.002297   0.000005   0.000001   0.000028   0.007874
     4  C    0.015350  -0.000072  -0.000000  -0.000000  -0.000003   0.003120
     5  C   -0.002124   0.000005  -0.000000   0.000000   0.000001   0.000160
     6  C    0.015490   0.000000   0.000000  -0.000000   0.000000  -0.000007
     7  C   -0.074386  -0.000001   0.000000   0.000000  -0.000000   0.000005
     8  C    0.454175  -0.000056  -0.000000   0.000000  -0.000002  -0.000841
     9  C    0.002297  -0.084607   0.017097  -0.001661   0.017056  -0.073214
    10  C   -0.000056   0.454176  -0.076717   0.015086  -0.001725   0.015168
    11  C   -0.000001  -0.074386   0.445505  -0.074426   0.015438  -0.001964
    12  C    0.000000   0.015490  -0.078560   0.440319  -0.078320   0.015157
    13  C    0.000005  -0.002124   0.015342  -0.074041   0.442616  -0.067879
    14  C   -0.000072   0.015350  -0.001634   0.015660  -0.074721   0.444837
    15  H   -0.000211  -0.000017  -0.000003  -0.000001   0.000003  -0.000993
    16  H    0.000038  -0.000000  -0.000000   0.000000  -0.000000   0.000003
    17  H   -0.000282  -0.000000   0.000000   0.000000   0.000000  -0.000001
    18  H   -0.012972  -0.000000  -0.000000   0.000000  -0.000000  -0.000003
    19  H    0.697599  -0.000019  -0.000000  -0.000000  -0.000000  -0.000017
    20  H   -0.000019   0.697599  -0.012972  -0.000282   0.000038  -0.000211
    21  H   -0.000000  -0.012972   0.719471  -0.013632  -0.000313   0.000034
    22  H   -0.000000  -0.000282  -0.013632   0.719663  -0.013709  -0.000301
    23  H   -0.000000   0.000038  -0.000313  -0.013709   0.722601  -0.013607
    24  H   -0.000017  -0.000211   0.000034  -0.000301  -0.013607   0.701684
 Mulliken charges:
               1
     1  O   -0.216274
     2  C    0.124144
     3  C    0.010044
     4  C    0.008944
     5  C    0.014573
     6  C    0.034195
     7  C    0.021583
     8  C    0.015829
     9  C    0.010044
    10  C    0.015829
    11  C    0.021583
    12  C    0.034195
    13  C    0.014572
    14  C    0.008944
    15  H   -0.010177
    16  H   -0.015122
    17  H   -0.012704
    18  H   -0.013201
    19  H   -0.007899
    20  H   -0.007899
    21  H   -0.013200
    22  H   -0.012704
    23  H   -0.015121
    24  H   -0.010177
 Sum of Mulliken charges =  -0.00000
 Mulliken charges with hydrogens summed into heavy atoms:
               1
     1  O   -0.216274
     2  C    0.124144
     3  C    0.010044
     4  C   -0.001234
     5  C   -0.000549
     6  C    0.021491
     7  C    0.008382
     8  C    0.007930
     9  C    0.010044
    10  C    0.007930
    11  C    0.008382
    12  C    0.021491
    13  C   -0.000549
    14  C   -0.001234
 Electronic spatial extent (au):  <R**2>=           3069.7955
 Charge=             -0.0000 electrons
 Dipole moment (field-independent basis, Debye):
    X=             -0.0000    Y=             -2.9816    Z=              0.0000  Tot=              2.9816
 Quadrupole moment (field-independent basis, Debye-Ang):
   XX=            -66.9811   YY=            -83.9570   ZZ=            -80.5797
   XY=              0.0000   XZ=             -2.7294   YZ=              0.0000
 Traceless Quadrupole moment (field-independent basis, Debye-Ang):
   XX=             10.1915   YY=             -6.7844   ZZ=             -3.4071
   XY=              0.0000   XZ=             -2.7294   YZ=              0.0000
 Octapole moment (field-independent basis, Debye-Ang**2):
  XXX=              0.0000  YYY=            -16.1508  ZZZ=             -0.0000  XYY=              0.0000
  XXY=             -5.7656  XXZ=             -0.0000  XZZ=             -0.0000  YZZ=              3.5024
  YYZ=              0.0000  XYZ=            -15.6353
 Hexadecapole moment (field-independent basis, Debye-Ang**3):
 XXXX=          -2947.3327 YYYY=           -745.8277 ZZZZ=           -259.9512 XXXY=              0.0002
 XXXZ=            -66.2450 YYYX=             -0.0000 YYYZ=              0.0000 ZZZX=             -5.3998
 ZZZY=              0.0000 XXYY=           -622.5086 XXZZ=           -608.3531 YYZZ=           -146.4087
 XXYZ=              0.0001 YYXZ=              7.3063 ZZXY=             -0.0000
 N-N= 7.750281577318D+02 E-N=-2.886258589456D+03  KE= 5.701360867050D+02
   1 Symmetry operations used in ECPInt.
 ECPInt:  NShTT=    6555 NPrTT=   24083 LenC2=    6209 LenP2D=   16784.
 LDataN:  DoStor=T MaxTD1= 5 Len=  102
 Calling FoFJK, ICntrl=      2127 FMM=F ISym2X=0 I1Cent= 0 IOpClX= 0 NMat=1 NMatS=1 NMatT=0.
 ***** Axes restored to original set *****
 -------------------------------------------------------------------
 Center     Atomic                   Forces (Hartrees/Bohr)
 Number     Number              X              Y              Z
 -------------------------------------------------------------------
      1        8          -0.000163113    0.004636389    0.007093395
      2        6           0.000517111   -0.014699433   -0.022489135
      3        6           0.003151348    0.003986756    0.003280059
      4        6          -0.005410559    0.004297774    0.002352178
      5        6           0.000740720   -0.001939391   -0.001761648
      6        6           0.000137422   -0.000197334    0.001071886
      7        6           0.004225499   -0.001701648   -0.000903454
      8        6          -0.007775170    0.001427604    0.000526489
      9        6          -0.003339255    0.001336158    0.004863030
     10        6           0.007722503    0.000071924    0.001768437
     11        6          -0.004156302   -0.000234050   -0.002056479
     12        6          -0.000168061    0.001058637    0.000244999
     13        6          -0.000642199   -0.000849482   -0.002505414
     14        6           0.005240415    0.000542405    0.005052466
     15        1           0.004556678    0.000111851    0.000262950
     16        1          -0.000359873   -0.000152315    0.003610023
     17        1          -0.003180600    0.001437326    0.001478767
     18        1          -0.002560147    0.001137791   -0.002424855
     19        1           0.003224246   -0.000995196   -0.001421929
     20        1          -0.003155005   -0.000969967   -0.001584943
     21        1           0.002611781   -0.002622546    0.000152350
     22        1           0.003100176    0.000843666    0.002011078
     23        1           0.000246362    0.003373477    0.001318857
     24        1          -0.004563977    0.000099605    0.000060892
 -------------------------------------------------------------------
 Cartesian Forces:  Max     0.022489135 RMS     0.004266522

 GradGradGradGradGradGradGradGradGradGradGradGradGradGradGradGradGradGrad
 Berny optimization.
 FormGI is forming the generalized inverse of G from B-inverse, IUseBI=4.
 Internal  Forces:  Max     0.011257298 RMS     0.002432158
 Search for a local minimum.
 Step number   1 out of a maximum of  144
 All quantities printed in internal units (Hartrees-Bohrs-Radians)
 Mixed Optimization -- RFO/linear search
 Second derivative matrix not updated -- first step.
 ITU=  0
     Eigenvalues ---    0.00966   0.00966   0.00966   0.01748   0.01748
     Eigenvalues ---    0.02095   0.02095   0.02110   0.02110   0.02120
     Eigenvalues ---    0.02120   0.02133   0.02133   0.02143   0.02143
     Eigenvalues ---    0.02152   0.02152   0.02153   0.02153   0.02156
     Eigenvalues ---    0.02156   0.15997   0.15997   0.15999   0.15999
     Eigenvalues ---    0.15999   0.15999   0.16000   0.16000   0.16000
     Eigenvalues ---    0.16000   0.21998   0.21998   0.22000   0.22000
     Eigenvalues ---    0.23475   0.23475   0.24981   0.24981   0.25000
     Eigenvalues ---    0.25000   0.34014   0.34014   0.35013   0.35013
     Eigenvalues ---    0.35108   0.35108   0.35119   0.35119   0.35139
     Eigenvalues ---    0.35139   0.35176   0.35176   0.41901   0.41901
     Eigenvalues ---    0.41934   0.41934   0.45740   0.45740   0.46074
     Eigenvalues ---    0.46074   0.46283   0.46283   0.46441   0.46441
     Eigenvalues ---    0.91708
 RFO step:  Lambda=-5.04607635D-03 EMin= 9.65623626D-03
 Linear search not attempted -- first point.
 Iteration  1 RMS(Cart)=  0.15691024 RMS(Int)=  0.00595112
 Iteration  2 RMS(Cart)=  0.01239224 RMS(Int)=  0.00004809
 Iteration  3 RMS(Cart)=  0.00005853 RMS(Int)=  0.00003962
 Iteration  4 RMS(Cart)=  0.00000000 RMS(Int)=  0.00003962
 Variable       Old X    -DE/DX   Delta X   Delta X   Delta X     New X
                                 (Linear)    (Quad)   (Total)
    R1        2.32156  -0.00848   0.00000  -0.00919  -0.00919   2.31237
    R2        2.80606   0.00731   0.00000   0.02118   0.02118   2.82725
    R3        2.80606   0.00731   0.00000   0.02118   0.02118   2.82725
    R4        2.64620   0.00326   0.00000   0.00702   0.00699   2.65319
    R5        2.64521   0.00313   0.00000   0.00670   0.00669   2.65191
    R6        2.63902   0.00089   0.00000   0.00193   0.00191   2.64093
    R7        2.05390   0.00338   0.00000   0.00946   0.00946   2.06336
    R8        2.63652   0.00255   0.00000   0.00552   0.00553   2.64205
    R9        2.05482   0.00360   0.00000   0.01012   0.01012   2.06494
   R10        2.63571   0.00442   0.00000   0.00946   0.00949   2.64520
   R11        2.05500   0.00376   0.00000   0.01057   0.01057   2.06558
   R12        2.63714  -0.00005   0.00000  -0.00013  -0.00011   2.63703
   R13        2.05449   0.00369   0.00000   0.01034   0.01034   2.06483
   R14        2.05654   0.00198   0.00000   0.00556   0.00556   2.06210
   R15        2.64521   0.00313   0.00000   0.00671   0.00669   2.65191
   R16        2.64620   0.00327   0.00000   0.00702   0.00699   2.65319
   R17        2.63714  -0.00005   0.00000  -0.00013  -0.00011   2.63703
   R18        2.05654   0.00198   0.00000   0.00556   0.00556   2.06210
   R19        2.63570   0.00442   0.00000   0.00946   0.00949   2.64520
   R20        2.05449   0.00369   0.00000   0.01034   0.01034   2.06483
   R21        2.63653   0.00255   0.00000   0.00552   0.00553   2.64205
   R22        2.05500   0.00376   0.00000   0.01057   0.01057   2.06558
   R23        2.63902   0.00089   0.00000   0.00193   0.00191   2.64093
   R24        2.05482   0.00360   0.00000   0.01012   0.01012   2.06494
   R25        2.05390   0.00338   0.00000   0.00946   0.00946   2.06336
    A1        2.08092   0.00563   0.00000   0.02207   0.02207   2.10299
    A2        2.08093   0.00563   0.00000   0.02207   0.02207   2.10299
    A3        2.12134  -0.01126   0.00000  -0.04414  -0.04414   2.07720
    A4        2.12406   0.00045   0.00000   0.00189   0.00194   2.12600
    A5        2.06728   0.00103   0.00000   0.00413   0.00419   2.07147
    A6        2.09120  -0.00148   0.00000  -0.00618  -0.00629   2.08491
    A7        2.09240   0.00139   0.00000   0.00601   0.00588   2.09829
    A8        2.11358  -0.00339   0.00000  -0.01936  -0.01930   2.09427
    A9        2.07703   0.00200   0.00000   0.01333   0.01339   2.09042
   A10        2.09605  -0.00034   0.00000  -0.00135  -0.00147   2.09458
   A11        2.09450  -0.00019   0.00000  -0.00145  -0.00145   2.09305
   A12        2.09258   0.00054   0.00000   0.00296   0.00296   2.09554
   A13        2.09667  -0.00062   0.00000  -0.00248  -0.00253   2.09415
   A14        2.09397   0.00009   0.00000  -0.00003  -0.00004   2.09393
   A15        2.09247   0.00053   0.00000   0.00264   0.00264   2.09511
   A16        2.09400   0.00033   0.00000   0.00154   0.00152   2.09552
   A17        2.09632  -0.00011   0.00000  -0.00044  -0.00043   2.09589
   A18        2.09284  -0.00022   0.00000  -0.00111  -0.00110   2.09174
   A19        2.09567   0.00074   0.00000   0.00306   0.00300   2.09867
   A20        2.09675  -0.00354   0.00000  -0.02073  -0.02070   2.07604
   A21        2.09077   0.00280   0.00000   0.01767   0.01769   2.10846
   A22        2.06728   0.00103   0.00000   0.00413   0.00419   2.07147
   A23        2.12406   0.00045   0.00000   0.00189   0.00194   2.12600
   A24        2.09120  -0.00148   0.00000  -0.00618  -0.00629   2.08491
   A25        2.09567   0.00074   0.00000   0.00306   0.00300   2.09867
   A26        2.09675  -0.00354   0.00000  -0.02073  -0.02070   2.07604
   A27        2.09077   0.00280   0.00000   0.01767   0.01769   2.10846
   A28        2.09400   0.00033   0.00000   0.00154   0.00152   2.09552
   A29        2.09284  -0.00022   0.00000  -0.00111  -0.00110   2.09174
   A30        2.09632  -0.00011   0.00000  -0.00044  -0.00043   2.09589
   A31        2.09667  -0.00062   0.00000  -0.00248  -0.00253   2.09415
   A32        2.09247   0.00053   0.00000   0.00264   0.00264   2.09511
   A33        2.09397   0.00009   0.00000  -0.00003  -0.00004   2.09393
   A34        2.09605  -0.00034   0.00000  -0.00135  -0.00147   2.09458
   A35        2.09258   0.00054   0.00000   0.00296   0.00296   2.09554
   A36        2.09450  -0.00019   0.00000  -0.00145  -0.00145   2.09305
   A37        2.09240   0.00139   0.00000   0.00601   0.00589   2.09829
   A38        2.11358  -0.00339   0.00000  -0.01936  -0.01931   2.09427
   A39        2.07703   0.00200   0.00000   0.01333   0.01339   2.09042
    D1        2.51350   0.00205   0.00000   0.14142   0.14141   2.65491
    D2       -0.58946   0.00218   0.00000   0.14617   0.14619  -0.44327
    D3       -0.62809   0.00205   0.00000   0.14142   0.14140  -0.48669
    D4        2.55214   0.00218   0.00000   0.14616   0.14618   2.69832
    D5       -0.58946   0.00218   0.00000   0.14616   0.14618  -0.44328
    D6        2.51350   0.00205   0.00000   0.14142   0.14140   2.65490
    D7        2.55213   0.00218   0.00000   0.14617   0.14619   2.69832
    D8       -0.62809   0.00205   0.00000   0.14143   0.14141  -0.48669
    D9       -3.13101   0.00096   0.00000   0.03812   0.03812  -3.09289
   D10       -0.00963   0.00095   0.00000   0.03666   0.03665   0.02703
   D11       -0.02857   0.00089   0.00000   0.03354   0.03354   0.00496
   D12        3.09281   0.00088   0.00000   0.03208   0.03206   3.12488
   D13        3.13253  -0.00048   0.00000  -0.01940  -0.01936   3.11317
   D14       -0.00767  -0.00039   0.00000  -0.01549  -0.01550  -0.02317
   D15        0.02882  -0.00040   0.00000  -0.01493  -0.01488   0.01394
   D16       -3.11138  -0.00031   0.00000  -0.01101  -0.01101  -3.12239
   D17        0.01037  -0.00080   0.00000  -0.03043  -0.03047  -0.02010
   D18        3.14091  -0.00034   0.00000  -0.01283  -0.01291   3.12801
   D19       -3.11144  -0.00073   0.00000  -0.02862  -0.02862  -3.14006
   D20        0.01910  -0.00027   0.00000  -0.01103  -0.01106   0.00804
   D21        0.00772   0.00024   0.00000   0.00869   0.00865   0.01637
   D22        3.13652   0.00053   0.00000   0.02004   0.02001  -3.12666
   D23       -3.12283  -0.00022   0.00000  -0.00885  -0.00891  -3.13175
   D24        0.00596   0.00007   0.00000   0.00249   0.00245   0.00841
   D25       -0.00752   0.00026   0.00000   0.01004   0.01003   0.00251
   D26        3.12663   0.00024   0.00000   0.00948   0.00949   3.13613
   D27       -3.13632  -0.00003   0.00000  -0.00127  -0.00132  -3.13765
   D28       -0.00218  -0.00005   0.00000  -0.00184  -0.00186  -0.00403
   D29       -0.01080  -0.00020   0.00000  -0.00696  -0.00691  -0.01771
   D30        3.12941  -0.00029   0.00000  -0.01089  -0.01088   3.11853
   D31        3.13822  -0.00018   0.00000  -0.00640  -0.00638   3.13184
   D32       -0.00476  -0.00028   0.00000  -0.01033  -0.01035  -0.01510
   D33        3.13253  -0.00048   0.00000  -0.01940  -0.01936   3.11316
   D34       -0.00768  -0.00039   0.00000  -0.01549  -0.01550  -0.02317
   D35        0.02882  -0.00040   0.00000  -0.01493  -0.01488   0.01394
   D36       -3.11138  -0.00031   0.00000  -0.01101  -0.01101  -3.12239
   D37       -3.13101   0.00096   0.00000   0.03811   0.03812  -3.09289
   D38       -0.00962   0.00095   0.00000   0.03666   0.03665   0.02703
   D39       -0.02857   0.00089   0.00000   0.03353   0.03353   0.00496
   D40        3.09281   0.00088   0.00000   0.03208   0.03206   3.12488
   D41       -0.01080  -0.00020   0.00000  -0.00696  -0.00691  -0.01771
   D42        3.13822  -0.00018   0.00000  -0.00640  -0.00638   3.13184
   D43        3.12941  -0.00029   0.00000  -0.01089  -0.01088   3.11853
   D44       -0.00476  -0.00028   0.00000  -0.01033  -0.01035  -0.01510
   D45       -0.00751   0.00026   0.00000   0.01004   0.01002   0.00251
   D46       -3.13632  -0.00003   0.00000  -0.00127  -0.00132  -3.13765
   D47        3.12663   0.00024   0.00000   0.00948   0.00949   3.13613
   D48       -0.00218  -0.00005   0.00000  -0.00184  -0.00186  -0.00403
   D49        0.00772   0.00024   0.00000   0.00869   0.00865   0.01637
   D50       -3.12283  -0.00022   0.00000  -0.00885  -0.00891  -3.13175
   D51        3.13652   0.00053   0.00000   0.02004   0.02001  -3.12666
   D52        0.00597   0.00007   0.00000   0.00249   0.00245   0.00841
   D53        0.01037  -0.00080   0.00000  -0.03043  -0.03047  -0.02010
   D54       -3.11144  -0.00073   0.00000  -0.02863  -0.02862  -3.14006
   D55        3.14091  -0.00034   0.00000  -0.01283  -0.01291   3.12801
   D56        0.01910  -0.00027   0.00000  -0.01103  -0.01106   0.00804
         Item               Value     Threshold  Converged?
 Maximum Force            0.011257     0.000450     NO 
 RMS     Force            0.002432     0.000300     NO 
 Maximum Displacement     0.585404     0.001800     NO 
 RMS     Displacement     0.160818     0.001200     NO 
 Predicted change in Energy=-3.006290D-03
 GradGradGradGradGradGradGradGradGradGradGradGradGradGradGradGradGradGrad

                          Input orientation:                          
 ---------------------------------------------------------------------
 Center     Atomic      Atomic             Coordinates (Angstroms)
 Number     Number       Type             X           Y           Z
 ---------------------------------------------------------------------
      1          8           0        0.049577   -1.408408   -2.154837
      2          6           0        0.026015   -0.739067   -1.130752
      3          6           0       -1.272716   -0.243888   -0.577168
      4          6           0       -1.447942   -0.000882    0.794505
      5          6           0       -2.692374    0.405668    1.283558
      6          6           0       -3.761816    0.595036    0.403129
      7          6           0       -3.591231    0.358391   -0.965915
      8          6           0       -2.355392   -0.069353   -1.452771
      9          6           0        1.295511   -0.403702   -0.413625
     10          6           0        2.401928   -1.252673   -0.569896
     11          6           0        3.612150   -0.952647    0.056714
     12          6           0        3.733500    0.209396    0.827630
     13          6           0        2.640464    1.069021    0.972681
     14          6           0        1.421280    0.758292    0.364317
     15          1           0       -0.615795   -0.148991    1.485741
     16          1           0       -2.826630    0.581136    2.353707
     17          1           0       -4.731045    0.926525    0.784550
     18          1           0       -4.427327    0.500938   -1.654781
     19          1           0       -2.214886   -0.278003   -2.514601
     20          1           0        2.300143   -2.144043   -1.191071
     21          1           0        4.466825   -1.622993   -0.061941
     22          1           0        4.682734    0.445923    1.315257
     23          1           0        2.736434    1.981201    1.566607
     24          1           0        0.570592    1.433124    0.478959
 ---------------------------------------------------------------------
                    Distance matrix (angstroms):
                    1          2          3          4          5
     1  O    0.000000
     2  C    1.223652   0.000000
     3  C    2.365080   1.496115   0.000000
     4  C    3.594762   2.534577   1.404010   0.000000
     5  C    4.757282   3.811686   2.428920   1.397522   0.000000
     6  C    5.008363   4.298871   2.803640   2.421220   1.398114
     7  C    4.217890   3.783656   2.426804   2.796756   2.422872
     8  C    2.840746   2.494657   1.403329   2.424543   2.797625
     9  C    2.365080   1.496115   2.578387   3.024629   4.408939
    10  C    2.840748   2.494657   3.810605   4.272010   5.668977
    11  C    4.217891   3.783656   4.976551   5.201416   6.564845
    12  C    5.008362   4.298871   5.219303   5.185813   6.445018
    13  C    4.757280   3.811686   4.408938   4.229835   5.382921
    14  C    3.594760   2.534577   3.024628   2.998974   4.229835
    15  H    3.909304   2.757924   2.167059   1.091884   2.158866
    16  H    5.705946   4.692757   3.418383   2.161165   1.092718
    17  H    6.078343   5.391864   3.896688   3.411590   2.162517
    18  H    4.892681   4.652362   3.415785   3.889417   3.413646
    19  H    2.556372   2.673809   2.154645   3.408106   3.888627
    20  H    2.556375   2.673810   4.093017   4.752241   6.127809
    21  H    4.892683   4.652363   5.925346   6.192675   7.561744
    22  H    6.078342   5.391864   6.286851   6.168955   7.375286
    23  H    5.705944   4.692757   5.061628   4.694017   5.659892
    24  H    3.909302   2.757924   2.706577   2.496082   3.514256
                    6          7          8          9         10
     6  C    0.000000
     7  C    1.399779   0.000000
     8  C    2.421531   1.395454   0.000000
     9  C    5.219303   4.976551   3.810605   0.000000
    10  C    6.507884   6.218546   4.981145   1.403329   0.000000
    11  C    7.542593   7.392786   6.218546   2.426804   1.395454
    12  C    7.517226   7.542592   6.507883   2.803640   2.421531
    13  C    6.445017   6.564844   5.668976   2.428920   2.797625
    14  C    5.185812   5.201414   4.272009   1.404010   2.424543
    15  H    3.409263   3.888608   3.415757   2.706578   3.814500
    16  H    2.163220   3.413813   3.890306   5.061629   6.264833
    17  H    1.093055   2.164735   3.411907   6.286852   7.580417
    18  H    2.164891   1.092663   2.158461   5.925346   7.133783
    19  H    3.415895   2.167430   1.091219   4.093016   5.103609
    20  H    6.840423   6.404777   5.103610   2.154645   1.091219
    21  H    8.535015   8.347175   7.133783   3.415785   2.158461
    22  H    8.494978   8.583118   7.580416   3.896688   3.411907
    23  H    6.745546   7.006178   6.264831   3.418383   3.890306
    24  H    4.413378   4.534698   3.814499   2.167059   3.415757
                   11         12         13         14         15
    11  C    0.000000
    12  C    1.399779   0.000000
    13  C    2.422872   1.398114   0.000000
    14  C    2.796756   2.421220   1.397522   0.000000
    15  H    4.534700   4.413380   3.514258   2.496083   0.000000
    16  H    7.006180   6.745548   5.659892   4.694017   2.484802
    17  H    8.583119   8.494978   7.375285   6.168954   4.310879
    18  H    8.347174   8.535014   7.561742   6.192673   4.981271
    19  H    6.404776   6.840421   6.127807   4.752239   4.310043
    20  H    2.167430   3.415896   3.888627   3.408106   4.432635
    21  H    1.092663   2.164891   3.413646   3.889417   5.513713
    22  H    2.164735   1.093055   2.162516   3.411590   5.334548
    23  H    3.413813   2.163220   1.092718   2.161165   3.972618
    24  H    3.888608   3.409263   2.158866   1.091884   2.219057
                   16         17         18         19         20
    16  H    0.000000
    17  H    2.491654   0.000000
    18  H    4.317018   2.494735   0.000000
    19  H    4.981242   4.320456   2.498187   0.000000
    20  H    6.802636   7.922693   7.243605   5.061554   0.000000
    21  H    7.992999   9.582140   9.281927   7.243604   2.498187
    22  H    7.582032   9.440967   9.582138   7.922692   4.320457
    23  H    5.790284   7.582031   7.992997   6.802634   4.981242
    24  H    3.972617   5.334546   5.513711   4.432633   4.310043
                   21         22         23         24
    21  H    0.000000
    22  H    2.494736   0.000000
    23  H    4.317017   2.491654   0.000000
    24  H    4.981271   4.310879   2.484802   0.000000
 Stoichiometry    C13H10O
 Framework group  C1[X(C13H10O)]
 Deg. of freedom    66
 Full point group                 C1      NOp   1
 Largest Abelian subgroup         C1      NOp   1
 Largest concise Abelian subgroup C1      NOp   1
                         Standard orientation:                         
 ---------------------------------------------------------------------
 Center     Atomic      Atomic             Coordinates (Angstroms)
 Number     Number       Type             X           Y           Z
 ---------------------------------------------------------------------
      1          8           0       -0.000000    2.361652   -0.000002
      2          6           0       -0.000000    1.138000    0.000002
      3          6           0        1.288883    0.378829    0.028271
      4          6           0        1.379217   -0.905433    0.588407
      5          6           0        2.611878   -1.561072    0.649657
      6          6           0        3.756348   -0.948412    0.130467
      7          6           0        3.670939    0.330082   -0.433040
      8          6           0        2.444952    0.995310   -0.474509
      9          6           0       -1.288883    0.378829   -0.028268
     10          6           0       -2.444953    0.995310    0.474510
     11          6           0       -3.670940    0.330081    0.433039
     12          6           0       -3.756348   -0.948412   -0.130469
     13          6           0       -2.611877   -1.561072   -0.649658
     14          6           0       -1.379216   -0.905433   -0.588406
     15          1           0        0.488165   -1.386894    0.996369
     16          1           0        2.678785   -2.555254    1.098163
     17          1           0        4.717561   -1.467614    0.166084
     18          1           0        4.565292    0.812526   -0.834655
     19          1           0        2.368543    2.000801   -0.891533
     20          1           0       -2.368545    2.000800    0.891535
     21          1           0       -4.565293    0.812525    0.834654
     22          1           0       -4.717561   -1.467615   -0.166088
     23          1           0       -2.678783   -2.555253   -1.098165
     24          1           0       -0.488164   -1.386894   -0.996367
 ---------------------------------------------------------------------
 Rotational constants (GHZ):           1.6777557           0.4196927           0.3527018
 Standard basis: def2SVP (5D, 7F)
 There are   260 symmetry adapted cartesian basis functions of A   symmetry.
 There are   246 symmetry adapted basis functions of A   symmetry.
   246 basis functions,   420 primitive gaussians,   260 cartesian basis functions
    48 alpha electrons       48 beta electrons
       nuclear repulsion energy       775.4085264450 Hartrees.
 NAtoms=   24 NActive=   24 NUniq=   24 SFac= 1.00D+00 NAtFMM=   60 NAOKFM=F Big=F
 Integral buffers will be    131072 words long.
 Raffenetti 2 integral format.
 Two-electron integral symmetry is turned on.
 Nuclear repulsion after empirical dispersion term =      775.3572149365 Hartrees.
 One-electron integrals computed using PRISM.
   1 Symmetry operations used in ECPInt.
 ECPInt:  NShTT=    6555 NPrTT=   24083 LenC2=    6207 LenP2D=   16808.
 LDataN:  DoStor=T MaxTD1= 4 Len=   56
 NBasis=   246 RedAO= T EigKep=  2.95D-04  NBF=   246
 NBsUse=   246 1.00D-06 EigRej= -1.00D+00 NBFU=   246
 Initial guess from the checkpoint file:  "/Users/mac_poclab/competitive_ketones/RWCCWEUUXYIKHB-KHWBWMQUSA-N/opt489.chk"
 B after Tr=    -0.000000    0.000000   -0.000000
         Rot=    0.999994    0.000000    0.003514   -0.000000 Ang=   0.40 deg.
 ExpMin= 1.22D-01 ExpMax= 2.27D+03 ExpMxC= 3.41D+02 IAcc=2 IRadAn=         4 AccDes= 0.00D+00
 Harris functional with IExCor=  402 and IRadAn=       4 diagonalized for initial guess.
 HarFok:  IExCor=  402 AccDes= 0.00D+00 IRadAn=         4 IDoV= 1 UseB2=F ITyADJ=14
 ICtDFT=  3500011 ScaDFX=  1.000000  1.000000  1.000000  1.000000
 FoFCou: FMM=F IPFlag=           0 FMFlag=      100000 FMFlg1=           0
         NFxFlg=           0 DoJE=T BraDBF=F KetDBF=T FulRan=T
         wScrn=  0.000000 ICntrl=       500 IOpCl=  0 I1Cent=   200000004 NGrid=           0
         NMat0=    1 NMatS0=      1 NMatT0=    0 NMatD0=    1 NMtDS0=    0 NMtDT0=    0
 Petite list used in FoFCou.
 Requested convergence on RMS density matrix=1.00D-08 within 128 cycles.
 Requested convergence on MAX density matrix=1.00D-06.
 Requested convergence on             energy=1.00D-06.
 No special actions if energy rises.
 Integral accuracy reduced to 1.0D-05 until final iterations.
 Initial convergence to 1.0D-05 achieved.  Increase integral accuracy.
 SCF Done:  E(RB3LYP) =  -576.268730539     A.U. after   14 cycles
            NFock= 14  Conv=0.89D-08     -V/T= 2.0110
   1 Symmetry operations used in ECPInt.
 ECPInt:  NShTT=    6555 NPrTT=   24083 LenC2=    6207 LenP2D=   16808.
 LDataN:  DoStor=T MaxTD1= 5 Len=  102
 Calling FoFJK, ICntrl=      2127 FMM=F ISym2X=0 I1Cent= 0 IOpClX= 0 NMat=1 NMatS=1 NMatT=0.
 ***** Axes restored to original set *****
 -------------------------------------------------------------------
 Center     Atomic                   Forces (Hartrees/Bohr)
 Number     Number              X              Y              Z
 -------------------------------------------------------------------
      1        8          -0.000108546    0.003083459    0.004718139
      2        6           0.000160370   -0.004554705   -0.006969798
      3        6           0.001235899    0.001239565    0.000740904
      4        6          -0.004314120   -0.001050616    0.002644221
      5        6           0.000421936    0.000564543   -0.000742860
      6        6           0.000190136    0.000122737    0.000115128
      7        6           0.001174862   -0.000590285   -0.000443623
      8        6          -0.003058393   -0.000256462    0.000694292
      9        6          -0.001285069    0.000154351    0.001392311
     10        6           0.003039205    0.000803151    0.000142113
     11        6          -0.001147249   -0.000193997   -0.000756216
     12        6          -0.000196433    0.000052270    0.000152436
     13        6          -0.000409448   -0.000915829    0.000205484
     14        6           0.004247836    0.002933722    0.000237037
     15        1          -0.002578154   -0.001240707   -0.000391120
     16        1           0.000058296   -0.000220186   -0.000093533
     17        1           0.000102407   -0.000217970   -0.000082429
     18        1           0.000007743    0.000169559    0.000132019
     19        1           0.001067992   -0.000328849    0.000085427
     20        1          -0.001063018    0.000187763   -0.000301280
     21        1          -0.000015559    0.000052637    0.000207918
     22        1          -0.000095051    0.000009863   -0.000235915
     23        1          -0.000050613    0.000001568   -0.000240966
     24        1           0.002614968    0.000194419   -0.001209688
 -------------------------------------------------------------------
 Cartesian Forces:  Max     0.006969798 RMS     0.001696341

 GradGradGradGradGradGradGradGradGradGradGradGradGradGradGradGradGradGrad
 Berny optimization.
 Using GEDIIS/GDIIS optimizer.
 FormGI is forming the generalized inverse of G from B-inverse, IUseBI=4.
 Internal  Forces:  Max     0.014155047 RMS     0.002609270
 Search for a local minimum.
 Step number   2 out of a maximum of  144
 All quantities printed in internal units (Hartrees-Bohrs-Radians)
 Mixed Optimization -- RFO/linear search
 Update second derivatives using D2CorX and points    1    2
 DE= -1.32D-03 DEPred=-3.01D-03 R= 4.38D-01
 Trust test= 4.38D-01 RLast= 4.38D-01 DXMaxT set to 3.00D-01
 ITU=  0  0
 Use linear search instead of GDIIS.
     Eigenvalues ---    0.00966   0.00966   0.01497   0.01747   0.01811
     Eigenvalues ---    0.02091   0.02095   0.02111   0.02120   0.02121
     Eigenvalues ---    0.02124   0.02134   0.02142   0.02143   0.02151
     Eigenvalues ---    0.02152   0.02152   0.02153   0.02155   0.02156
     Eigenvalues ---    0.02686   0.14191   0.15996   0.15999   0.15999
     Eigenvalues ---    0.16000   0.16000   0.16000   0.16000   0.16000
     Eigenvalues ---    0.16065   0.21895   0.21998   0.21999   0.22000
     Eigenvalues ---    0.22100   0.23471   0.24185   0.24976   0.25000
     Eigenvalues ---    0.30927   0.33216   0.34014   0.35012   0.35013
     Eigenvalues ---    0.35096   0.35108   0.35114   0.35119   0.35132
     Eigenvalues ---    0.35139   0.35176   0.38408   0.41900   0.41913
     Eigenvalues ---    0.41960   0.42731   0.45317   0.45743   0.45862
     Eigenvalues ---    0.46073   0.46282   0.46404   0.46441   0.46677
     Eigenvalues ---    0.90319
 RFO step:  Lambda=-1.78812607D-03 EMin= 9.65625523D-03
 Quartic linear search produced a step of -0.32363.
 Iteration  1 RMS(Cart)=  0.09290253 RMS(Int)=  0.00145090
 Iteration  2 RMS(Cart)=  0.00255161 RMS(Int)=  0.00021990
 Iteration  3 RMS(Cart)=  0.00000410 RMS(Int)=  0.00021989
 Iteration  4 RMS(Cart)=  0.00000000 RMS(Int)=  0.00021989
 Variable       Old X    -DE/DX   Delta X   Delta X   Delta X     New X
                                 (Linear)    (Quad)   (Total)
    R1        2.31237  -0.00564   0.00297  -0.01045  -0.00747   2.30490
    R2        2.82725   0.00533  -0.00686   0.02524   0.01838   2.84563
    R3        2.82725   0.00533  -0.00686   0.02524   0.01838   2.84563
    R4        2.65319   0.00264  -0.00226   0.00893   0.00674   2.65994
    R5        2.65191   0.00080  -0.00217   0.00593   0.00381   2.65572
    R6        2.64093  -0.00067  -0.00062   0.00045  -0.00015   2.64078
    R7        2.06336  -0.00204  -0.00306   0.00273  -0.00033   2.06303
    R8        2.64205  -0.00086  -0.00179   0.00250   0.00065   2.64270
    R9        2.06494  -0.00013  -0.00327   0.00681   0.00354   2.06847
   R10        2.64520  -0.00082  -0.00307   0.00522   0.00207   2.64727
   R11        2.06558  -0.00019  -0.00342   0.00703   0.00361   2.06918
   R12        2.63703  -0.00150   0.00004  -0.00233  -0.00231   2.63472
   R13        2.06483  -0.00007  -0.00335   0.00709   0.00375   2.06858
   R14        2.06210   0.00012  -0.00180   0.00411   0.00231   2.06441
   R15        2.65191   0.00080  -0.00217   0.00593   0.00381   2.65572
   R16        2.65319   0.00264  -0.00226   0.00893   0.00675   2.65994
   R17        2.63703  -0.00150   0.00004  -0.00233  -0.00231   2.63472
   R18        2.06210   0.00012  -0.00180   0.00411   0.00231   2.06441
   R19        2.64520  -0.00082  -0.00307   0.00522   0.00207   2.64727
   R20        2.06483  -0.00007  -0.00335   0.00709   0.00375   2.06858
   R21        2.64205  -0.00086  -0.00179   0.00250   0.00065   2.64270
   R22        2.06558  -0.00019  -0.00342   0.00703   0.00361   2.06918
   R23        2.64093  -0.00067  -0.00062   0.00045  -0.00015   2.64078
   R24        2.06494  -0.00013  -0.00327   0.00681   0.00354   2.06847
   R25        2.06336  -0.00204  -0.00306   0.00273  -0.00033   2.06303
    A1        2.10299  -0.00708  -0.00714  -0.00329  -0.01044   2.09256
    A2        2.10299  -0.00708  -0.00714  -0.00329  -0.01044   2.09256
    A3        2.07720   0.01416   0.01428   0.00659   0.02087   2.09807
    A4        2.12600   0.00971  -0.00063   0.02639   0.02511   2.15111
    A5        2.07147  -0.00688  -0.00135  -0.01623  -0.01808   2.05339
    A6        2.08491  -0.00289   0.00204  -0.01234  -0.01055   2.07436
    A7        2.09829   0.00065  -0.00190   0.00655   0.00476   2.10305
    A8        2.09427   0.00058   0.00625  -0.01137  -0.00523   2.08904
    A9        2.09042  -0.00124  -0.00433   0.00448   0.00002   2.09044
   A10        2.09458   0.00055   0.00048   0.00044   0.00095   2.09553
   A11        2.09305  -0.00037   0.00047  -0.00222  -0.00175   2.09130
   A12        2.09554  -0.00017  -0.00096   0.00177   0.00081   2.09635
   A13        2.09415  -0.00026   0.00082  -0.00339  -0.00264   2.09150
   A14        2.09393   0.00018   0.00001   0.00092   0.00096   2.09489
   A15        2.09511   0.00009  -0.00085   0.00247   0.00165   2.09676
   A16        2.09552   0.00006  -0.00049   0.00049  -0.00003   2.09549
   A17        2.09589  -0.00018   0.00014  -0.00063  -0.00048   2.09542
   A18        2.09174   0.00012   0.00036   0.00013   0.00050   2.09224
   A19        2.09867   0.00190  -0.00097   0.00776   0.00687   2.10554
   A20        2.07604  -0.00210   0.00670  -0.02236  -0.01571   2.06033
   A21        2.10846   0.00020  -0.00573   0.01462   0.00885   2.11731
   A22        2.07147  -0.00688  -0.00135  -0.01623  -0.01808   2.05339
   A23        2.12600   0.00971  -0.00063   0.02639   0.02511   2.15111
   A24        2.08491  -0.00289   0.00204  -0.01234  -0.01055   2.07436
   A25        2.09867   0.00190  -0.00097   0.00776   0.00687   2.10554
   A26        2.07604  -0.00210   0.00670  -0.02236  -0.01571   2.06033
   A27        2.10846   0.00020  -0.00573   0.01462   0.00885   2.11731
   A28        2.09552   0.00006  -0.00049   0.00049  -0.00003   2.09549
   A29        2.09174   0.00012   0.00036   0.00013   0.00050   2.09224
   A30        2.09589  -0.00018   0.00014  -0.00063  -0.00048   2.09542
   A31        2.09415  -0.00026   0.00082  -0.00339  -0.00264   2.09150
   A32        2.09511   0.00009  -0.00085   0.00246   0.00165   2.09676
   A33        2.09393   0.00018   0.00001   0.00092   0.00096   2.09489
   A34        2.09458   0.00055   0.00048   0.00044   0.00095   2.09553
   A35        2.09554  -0.00017  -0.00096   0.00177   0.00081   2.09635
   A36        2.09305  -0.00037   0.00047  -0.00222  -0.00175   2.09130
   A37        2.09829   0.00065  -0.00190   0.00655   0.00476   2.10305
   A38        2.09427   0.00058   0.00625  -0.01137  -0.00524   2.08904
   A39        2.09042  -0.00124  -0.00433   0.00448   0.00002   2.09044
    D1        2.65491  -0.00333  -0.04576  -0.01380  -0.05970   2.59521
    D2       -0.44327  -0.00170  -0.04731   0.04516  -0.00201  -0.44528
    D3       -0.48669  -0.00333  -0.04576  -0.01379  -0.05969  -0.54638
    D4        2.69832  -0.00170  -0.04731   0.04517  -0.00200   2.69632
    D5       -0.44328  -0.00170  -0.04731   0.04517  -0.00200  -0.44528
    D6        2.65490  -0.00333  -0.04576  -0.01379  -0.05969   2.59521
    D7        2.69832  -0.00170  -0.04731   0.04516  -0.00201   2.69631
    D8       -0.48669  -0.00333  -0.04576  -0.01380  -0.05970  -0.54639
    D9       -3.09289   0.00068  -0.01234   0.05482   0.04306  -3.04983
   D10        0.02703   0.00006  -0.01186   0.03694   0.02556   0.05259
   D11        0.00496  -0.00106  -0.01085  -0.00467  -0.01545  -0.01049
   D12        3.12488  -0.00168  -0.01038  -0.02255  -0.03295   3.09192
   D13        3.11317  -0.00027   0.00627  -0.03576  -0.02873   3.08444
   D14       -0.02317  -0.00062   0.00502  -0.04186  -0.03615  -0.05932
   D15        0.01394   0.00100   0.00482   0.02079   0.02543   0.03937
   D16       -3.12239   0.00066   0.00356   0.01469   0.01800  -3.10439
   D17       -0.02010   0.00046   0.00986  -0.01335  -0.00334  -0.02344
   D18        3.12801  -0.00001   0.00418  -0.01068  -0.00649   3.12152
   D19       -3.14006   0.00106   0.00926   0.00469   0.01424  -3.12582
   D20        0.00804   0.00060   0.00358   0.00736   0.01109   0.01914
   D21        0.01637   0.00021  -0.00280   0.01535   0.01249   0.02886
   D22       -3.12666  -0.00022  -0.00648   0.01187   0.00532  -3.12134
   D23       -3.13175   0.00068   0.00288   0.01266   0.01564  -3.11610
   D24        0.00841   0.00024  -0.00079   0.00918   0.00846   0.01688
   D25        0.00251  -0.00028  -0.00324   0.00064  -0.00268  -0.00017
   D26        3.13613  -0.00027  -0.00307  -0.00107  -0.00410   3.13202
   D27       -3.13765   0.00015   0.00043   0.00413   0.00450  -3.13315
   D28       -0.00403   0.00017   0.00060   0.00242   0.00308  -0.00095
   D29       -0.01771  -0.00034   0.00224  -0.01888  -0.01657  -0.03428
   D30        3.11853  -0.00000   0.00352  -0.01277  -0.00897   3.10956
   D31        3.13184  -0.00035   0.00206  -0.01716  -0.01515   3.11670
   D32       -0.01510  -0.00001   0.00335  -0.01105  -0.00755  -0.02265
   D33        3.11316  -0.00027   0.00627  -0.03576  -0.02872   3.08444
   D34       -0.02317  -0.00062   0.00501  -0.04186  -0.03615  -0.05932
   D35        0.01394   0.00100   0.00481   0.02080   0.02543   0.03937
   D36       -3.12239   0.00066   0.00356   0.01469   0.01800  -3.10439
   D37       -3.09289   0.00068  -0.01234   0.05482   0.04306  -3.04983
   D38        0.02703   0.00006  -0.01186   0.03694   0.02556   0.05259
[...]
 ,-0.00274941,0.00241588,-0.00280619,-0.00097820,-0.00001212,-0.0003990
 3,-0.00010463,0.00010551,-0.00004895,-0.00000331,-0.00004909,-0.000045
 03,-0.00001268,-0.00001358,-0.00001547,-0.00002862,0.00000401,-0.00001
 109,-0.00000458,0.00000443,-0.00001003,-0.00003592,0.00005449,0.000007
 37,0.00073992,-0.00141751,-0.00021599,0.06201863,-0.00004220,-0.000337
 06,-0.00004028,-0.00023454,0.00062277,-0.00031285,0.00337509,0.0061143
 8,-0.00103072,0.00058222,0.00285757,-0.00830920,0.01135990,-0.04456652
 ,-0.03697040,-0.00069430,0.00447435,0.00455558,0.00222378,0.00647486,0
 .00017576,0.00028327,-0.00091045,0.00014205,0.00000101,-0.00003664,0.0
 0003939,0.00000443,0.00000335,0.00000800,-0.00000001,-0.00000291,0.000
 00123,0.00000342,0.00000799,0.00000231,0.00002718,-0.00000941,0.000015
 23,-0.00004450,0.00000196,0.00001496,-0.00135263,-0.00383090,0.0004404
 3,-0.01387419,0.03358494,0.00033944,-0.00019458,-0.00027219,-0.0009176
 9,0.00020485,-0.00004102,0.00187498,-0.00093126,0.00149057,-0.00135508
 ,-0.00045377,-0.00544014,0.04219554,-0.03718555,-0.32797824,0.00634376
 ,-0.00336358,-0.01423898,-0.00376993,0.00041765,-0.00052230,-0.0004090
 9,0.00025874,0.00075884,0.00010752,-0.00003674,0.00001307,-0.00000707,
 0.00005234,0.00003790,0.00001176,0.00001263,0.00001526,0.00002088,-0.0
 0000161,0.00000855,0.00000350,-0.00001784,-0.00000156,0.00005743,-0.00
 003025,-0.00002385,0.00018123,0.00041668,0.00072776,-0.04513421,0.0406
 0578,0.34545377,-0.00004878,0.00009291,0.00001905,0.00006791,-0.000355
 54,-0.00000596,0.00050607,-0.00044599,-0.00051809,-0.00124610,0.002052
 67,-0.00407555,-0.01497047,0.00646585,0.01058110,-0.28496257,0.0771076
 6,0.08247469,-0.00005776,0.00108496,-0.00162447,0.00201451,0.00146585,
 0.00057454,-0.00008005,0.00001611,-0.00000304,0.00003663,-0.00004300,-
 0.00002318,-0.00002598,-0.00001939,-0.00001773,-0.00001727,0.00002277,
 0.00000259,0.00002307,0.00001710,0.00003012,-0.00004389,-0.00000812,0.
 00004515,-0.00074662,0.00025161,0.00050303,0.00059682,-0.00135431,0.00
 009141,0.29873297,0.00018080,0.00002811,-0.00015218,-0.00032215,-0.001
 06435,0.00006669,-0.00039776,-0.00068321,0.00046215,0.00197535,0.00671
 718,0.00014418,0.00342271,0.00335113,-0.00233179,0.07699927,-0.0639782
 8,-0.02791495,0.00426616,0.00331415,-0.00041933,0.00146614,0.00651631,
 -0.00167740,-0.00010669,0.00008641,-0.00002512,0.00004754,-0.00001682,
 -0.00002919,-0.00003262,-0.00002872,-0.00001253,-0.00001579,0.00003572
 ,0.00001468,0.00004335,-0.00001040,0.00000738,-0.00002813,0.00003768,0
 .00003243,0.00010394,-0.00003187,-0.00011344,-0.00127326,-0.00377714,0
 .00039895,-0.08520636,0.05325124,0.00014554,-0.00000072,0.00019233,-0.
 00003014,0.00003944,-0.00013240,-0.00065491,0.00009320,-0.00098614,-0.
 00326028,0.00001501,-0.00210795,-0.01933791,0.00597954,0.01051807,0.08
 253548,-0.02800443,-0.08882919,0.02817507,-0.00874677,-0.00418148,-0.0
 0019239,-0.00129738,-0.00545181,0.00006480,-0.00001444,0.00000094,0.00
 001575,0.00000340,0.00002243,-0.00000360,0.00000097,-0.00000041,0.0000
 0248,0.00000836,0.00000144,0.00001490,0.00000238,0.00001559,-0.0000091
 9,-0.00003006,-0.00000175,-0.00088217,0.00026800,0.00034031,0.00061688
 ,0.00030655,0.00083348,-0.08819928,0.03106727,0.08887717,0.00006778,0.
 00019755,0.00041544,-0.00013568,-0.00042341,-0.00165761,-0.00301944,0.
 00359751,0.00298007,0.00002040,-0.00011716,0.00095008,0.00155685,0.001
 62624,0.00118082,0.00722123,-0.00029889,0.00577039,-0.21369104,0.03381
 276,-0.13732007,-0.01561209,0.00323659,-0.02001303,-0.00030458,0.00011
 541,0.00030330,-0.00006675,-0.00009519,-0.00008326,-0.00001362,0.00002
 537,-0.00001782,-0.00001318,-0.00001249,-0.00000767,-0.00002438,0.0000
 1619,-0.00001978,-0.00000577,0.00003314,0.00001409,-0.00009200,-0.0002
 8309,-0.00006386,0.00020702,0.00001907,0.00030685,0.00034177,-0.001233
 47,-0.00021306,0.22281476,0.00015424,-0.00010153,-0.00015577,0.0000236
 0,0.00032244,0.00039843,0.00335364,0.00629353,-0.00132244,-0.00005882,
 -0.00077995,-0.00039860,0.00176597,0.00634613,-0.00167622,-0.00360828,
 0.00454231,-0.00342087,0.03377905,-0.04585782,0.02295553,0.00625484,0.
 00319198,0.00628311,0.00022196,-0.00014730,0.00005212,0.00001706,0.000
 05547,0.00000438,0.00002660,0.00000076,0.00000423,0.00001036,-0.000019
 36,-0.00001186,-0.00002141,0.00001372,-0.00002175,0.00003481,-0.000088
 75,-0.00002597,-0.00026158,-0.00100930,0.00010901,-0.00015813,0.000227
 04,-0.00020297,-0.00117939,-0.00366716,0.00061002,-0.03873749,0.034593
 77,-0.00018257,0.00003623,-0.00003542,0.00053896,-0.00003192,0.0004817
 0,0.00209203,-0.00155250,0.00037868,0.00093383,-0.00022897,-0.00031692
 ,0.00213733,-0.00184893,-0.00464662,-0.02422702,0.00482355,-0.01384762
 ,-0.13725306,0.02319506,-0.17716827,0.00968017,-0.00196562,0.01040699,
 0.00008798,0.00000369,-0.00010465,0.00002960,0.00000200,0.00001045,-0.
 00000340,-0.00001525,0.00000294,-0.00000071,0.00000626,0.00000198,0.00
 000363,-0.00000039,0.00001572,-0.00000648,0.00000244,0.00001620,-0.000
 03400,0.00013814,0.00003158,-0.00109480,0.00023572,-0.00073361,0.00030
 363,0.00045168,0.00109756,0.14717397,-0.02389091,0.18382560,-0.0002910
 6,0.00011871,0.00179829,-0.00018706,-0.00221455,-0.00300410,0.00752872
 ,-0.00348501,-0.02172640,-0.00321983,0.00226273,-0.00278998,-0.0009704
 0,-0.00004161,-0.00025294,-0.00396088,0.00342500,0.00070920,0.00061809
 ,0.00462857,0.02700578,-0.06358332,0.01089042,0.04542390,0.00030628,0.
 00041545,0.00024654,-0.00000303,0.00003956,0.00004159,-0.00002471,0.00
 004446,0.00003006,0.00003066,0.00003024,0.00001884,0.00004180,0.000016
 53,0.00005246,0.00018111,-0.00011327,-0.00006464,0.00030551,0.00000847
 ,-0.00128150,-0.00001476,-0.00026389,0.00006160,-0.00012681,0.00008236
 ,0.00122372,0.00077534,-0.00156785,-0.00020061,0.06260200,0.00077973,-
 0.00031174,-0.00050929,-0.00065700,-0.00360963,0.00024093,-0.00228501,
 0.00547015,0.00381787,0.00237575,0.00557356,-0.00006891,-0.00007556,-0
 .00083200,0.00035290,0.00328994,0.00636374,-0.00076336,0.00096939,0.00
 365373,-0.00821794,0.01205384,-0.04953946,-0.04955565,-0.00027115,0.00
 013169,-0.00021927,-0.00002708,-0.00006653,-0.00014136,-0.00000610,-0.
 00000591,0.00003846,-0.00000843,-0.00002253,-0.00001504,-0.00004269,-0
 .00005328,-0.00002364,-0.00012562,0.00011856,0.00006803,0.00010706,0.0
 0034941,0.00026319,-0.00024726,-0.00090879,0.00005884,-0.00000831,-0.0
 0006598,-0.00032407,-0.00146653,-0.00390574,0.00062190,-0.01438234,0.0
 3770397,0.00172130,0.00045154,0.00210444,0.00169308,-0.00142262,-0.002
 43682,0.00364626,-0.00380165,-0.01541310,-0.00369441,0.00001353,-0.000
 56599,-0.00014399,0.00027115,0.00070341,0.00113051,-0.00132679,0.00133
 633,-0.00175369,-0.00071466,-0.00323873,0.04410098,-0.04860652,-0.3271
 7976,-0.00005610,0.00004384,0.00018658,0.00002117,-0.00003472,0.000057
 88,-0.00000718,0.00003415,-0.00001127,0.00000643,0.00001248,0.00000959
 ,0.00002752,0.00001122,0.00001573,0.00002637,-0.00003150,-0.00002246,0
 .00033762,-0.00020954,-0.00069321,0.00008422,0.00012294,-0.00005887,-0
 .00014177,0.00003278,-0.00020055,0.00028112,0.00068350,0.00060193,-0.0
 4727041,0.05441391,0.34480866,-0.00015618,-0.00165126,-0.00086613,-0.0
 0029448,0.00187509,0.00336557,0.00031517,-0.00005217,-0.00047357,0.000
 17462,0.00001740,0.00013365,0.00004375,-0.00004080,-0.00003410,0.00003
 188,-0.00000448,-0.00003415,-0.00002308,-0.00001020,-0.00005460,-0.000
 00083,-0.00002225,-0.00005019,0.00680019,0.01901796,0.01230907,-0.0605
 5108,-0.02892692,-0.02311397,0.00154080,-0.02256282,-0.01497069,-0.003
 75183,0.00065602,-0.00363589,-0.00098345,0.00016305,0.00010389,-0.0033
 2467,0.00345652,-0.00115837,0.00001377,0.00002553,-0.00004445,0.000024
 20,-0.00000346,-0.00001910,0.00000689,-0.00000054,-0.00000783,0.000014
 42,-0.00000435,0.00000559,-0.00006510,0.00004601,-0.00002334,0.0593074
 3,-0.00134671,0.00167453,0.00128922,-0.00174772,-0.00218934,-0.0007889
 3,-0.00005876,0.00023982,0.00008034,-0.00006765,-0.00001433,-0.0000887
 3,-0.00004282,0.00000741,0.00003647,-0.00000950,0.00000506,0.00002367,
 0.00000376,-0.00003723,0.00001948,-0.00003368,0.00010143,0.00003725,-0
 .00348648,-0.01174101,-0.01135013,-0.02728015,-0.24773384,-0.13641076,
 0.00206079,0.00071829,-0.00206135,0.00023429,0.00293449,-0.00290436,0.
 00005229,0.00023230,0.00074009,0.00432725,0.00060780,-0.00211717,0.000
 00003,-0.00001361,0.00003483,-0.00001275,0.00000015,0.00000968,-0.0000
 0008,0.00000482,0.00000528,-0.00000798,-0.00000048,-0.00000037,0.00003
 807,-0.00000647,0.00001763,0.02855244,0.25672933,-0.00141996,0.0003058
 3,-0.00001661,0.00001829,0.00092216,-0.00374958,0.00028208,-0.00016678
 ,0.00006960,0.00010630,0.00001301,0.00011692,0.00003088,0.00000302,-0.
 00004690,0.00000682,-0.00000285,-0.00001922,0.00000656,0.00002463,0.00
 001843,0.00002126,-0.00006758,-0.00011227,0.00086041,-0.00324096,0.002
 52659,-0.02362776,-0.13742471,-0.13201759,0.00008671,-0.01004604,-0.00
 122613,-0.00369334,-0.00232805,0.00455650,0.00008958,0.00082517,-0.000
 34783,-0.00089693,-0.00222226,0.00450462,-0.00001876,-0.00002018,-0.00
 001949,0.00001637,-0.00000563,-0.00001238,0.00000156,-0.00000586,-0.00
 000416,0.00001605,-0.00000632,-0.00000220,-0.00003534,0.00001344,0.000
 00499,0.02679936,0.15146406,0.12907772,0.00008242,-0.00029576,-0.00034
 241,-0.00017903,0.00132456,0.00103269,-0.00028458,-0.00023654,-0.00023
 299,-0.00000412,-0.00000040,-0.00003449,-0.00002496,0.00002414,-0.0000
 0796,-0.00001348,0.00000182,0.00001434,-0.00001320,0.00002585,-0.00001
 613,-0.00006998,0.00003671,0.00011703,-0.00270423,-0.00129634,-0.00464
 680,-0.01570727,0.01886232,0.00437562,-0.22097488,0.13932222,0.0193633
 4,0.00652222,-0.00468958,-0.00185503,0.00172835,-0.00019358,-0.0019007
 4,0.00007628,-0.00090773,-0.00024252,-0.00000164,-0.00001837,-0.000014
 70,-0.00001021,0.00000724,0.00001093,-0.00000825,-0.00000091,0.0000033
 0,-0.00002126,0.00000583,0.00000089,0.00001483,-0.00001740,0.00000144,
 0.00071280,-0.00088603,0.00129612,0.23051545,0.00022820,-0.00000359,0.
 00007989,-0.00049353,0.00033918,-0.00002614,0.00000486,-0.00013683,0.0
 0000573,0.00001819,0.00000835,0.00004468,-0.00001306,0.00002379,0.0000
 0335,0.00000402,0.00000073,0.00001546,0.00001377,0.00000748,-0.0000125
 7,-0.00002156,0.00001570,-0.00001375,-0.00057358,0.00234895,-0.0033786
 1,-0.00684892,0.00792450,-0.00012189,0.13923964,-0.16710187,-0.0275623
 7,0.02118362,-0.01106503,-0.00152824,-0.00100779,-0.00161044,-0.005399
 25,-0.00087493,-0.00019858,0.00000861,-0.00003411,-0.00002660,0.000006
 24,-0.00000153,-0.00000036,-0.00000092,0.00000153,-0.00000427,0.000000
 15,0.00000112,-0.00000354,0.00000110,-0.00000656,0.00000002,-0.0000001
 2,-0.00048358,-0.00063211,0.00208036,-0.15039960,0.17100439,-0.0000585
 3,-0.00012315,-0.00014801,-0.00026777,0.00043569,0.00050832,-0.0002451
 1,0.00004618,-0.00013514,-0.00002715,0.00001581,-0.00008255,0.00001752
 ,-0.00001629,0.00000624,-0.00000899,-0.00000324,-0.00001781,-0.0000234
 6,0.00000717,-0.00000421,-0.00003112,-0.00001261,0.00005345,-0.0040717
 9,-0.00315964,0.00400804,-0.01048579,0.00864796,0.00576969,0.01937239,
 -0.02779924,-0.04864040,0.01339498,-0.01029073,0.00245874,-0.00241640,
 -0.00521104,0.00313845,-0.00028583,-0.00016310,-0.00095418,0.00004212,
 0.00001453,0.00000631,-0.00000255,-0.00000281,0.00000228,-0.00000040,0
 .00000305,0.00000026,-0.00000658,0.00000848,0.00000047,0.00000244,-0.0
 0000640,-0.00000311,0.00158105,0.00213506,-0.00260916,-0.01834464,0.03
 337560,0.03971430,-0.00003754,0.00001649,-0.00009565,0.00005185,-0.000
 14181,0.00035009,-0.00007984,0.00000856,-0.00001715,-0.00004341,-0.000
 04615,-0.00001219,0.00002577,-0.00002085,-0.00002705,-0.00001690,0.000
 00648,-0.00002351,-0.00002775,0.00000791,0.00002461,0.00003643,0.00000
 455,0.00005004,0.00044884,0.00032073,0.00065016,0.00208063,0.00033706,
 -0.00150818,0.00090127,0.00198772,-0.00005964,-0.27614263,-0.04817484,
 -0.10917072,-0.01500772,-0.00757329,-0.01101067,-0.00139513,0.00464120
 ,-0.00039154,0.00001960,0.00002649,-0.00003751,-0.00000415,0.00000354,
 0.00000677,-0.00000684,0.00000291,-0.00000017,-0.00000813,0.00000071,-
 0.00000145,0.00000667,-0.00000097,-0.00000048,-0.00009063,0.00012511,0
 .00007478,0.00029370,-0.00080872,0.00100197,0.28918249,-0.00006898,0.0
 0022110,0.00008021,-0.00010541,-0.00032667,0.00036874,-0.00010312,0.00
 002728,-0.00004312,-0.00000241,0.00000272,-0.00004527,0.00000378,0.000
 00746,0.00000991,-0.00000867,-0.00000155,-0.00000871,-0.00001078,-0.00
 000076,0.00001343,0.00000416,0.00002577,0.00002317,0.00047724,-0.00112
 530,-0.00007945,0.00102707,-0.00240730,-0.00522140,-0.02375301,-0.0000
 6827,-0.01080088,-0.04827107,-0.06623068,-0.03187778,0.01833277,0.0082
 6269,0.00840592,0.00386789,-0.00056719,-0.00313834,0.00002012,-0.00001
 263,0.00001590,-0.00000283,0.00000068,0.00000209,0.00000113,0.00000062
 ,0.00000118,-0.00000357,-0.00000170,0.00000116,0.00000708,-0.00000238,
 0.00000228,-0.00107728,-0.00009199,-0.00036003,-0.00036242,-0.00008368
 ,0.00220057,0.05033224,0.06234393,-0.00022371,-0.00007134,-0.00001192,
 0.00032869,0.00039443,-0.00085400,0.00006827,-0.00004842,0.00005986,0.
 00002664,0.00001669,0.00003274,-0.00004508,0.00001374,-0.00000497,0.00
 001171,-0.00000115,0.00003834,0.00003134,0.00000066,-0.00002660,-0.000
 04782,-0.00001150,-0.00001997,0.00065311,0.00028477,-0.00048682,-0.001
 19238,-0.00561730,0.00340568,-0.01511464,-0.00195552,-0.00175815,-0.10
 909778,-0.03178360,-0.09539662,0.00396541,-0.00043037,0.00564372,-0.00
 065078,-0.00298952,0.00532545,-0.00002172,0.00000290,-0.00000918,0.000
 00035,-0.00000055,0.00000064,-0.00000284,-0.00000033,0.00000088,-0.000
 00077,0.00000421,-0.00000243,0.00000395,-0.00000902,0.00000326,-0.0005
 6412,0.00002233,-0.00021072,0.00126233,0.00203321,-0.00243786,0.119393
 81,0.03817463,0.08933494,-0.00057807,-0.00022219,-0.00061812,0.0010728
 6,-0.00091444,-0.00013465,-0.00010035,0.00008308,-0.00007891,-0.000033
 60,0.00001443,-0.00005290,-0.00000413,0.00001032,0.00000044,-0.0000280
 9,0.00001092,-0.00000036,-0.00001304,0.00000811,0.00001770,-0.00000584
 ,0.00002086,0.00006067,-0.00425399,0.00041316,-0.00331902,-0.00099643,
 0.00030995,0.00013810,-0.00285701,0.00354943,-0.00130900,0.00696613,0.
 02112662,0.01290977,-0.06030785,-0.02605300,-0.02235530,0.00086401,-0.
 02436824,-0.01456221,0.00002429,-0.00002949,-0.00002433,-0.00002170,-0
 .00000634,0.00001498,-0.00000390,-0.00000152,0.00000225,-0.00000980,0.
 00000149,0.00000213,0.00002372,-0.00001900,0.00000578,-0.00002112,-0.0
 0018420,0.00020740,0.00017776,0.00095918,0.00059928,0.00056321,-0.0011
 2052,0.00098383,0.05886381,-0.00033147,-0.00020783,-0.00015656,0.00076
 731,0.00010187,-0.00000042,-0.00009964,0.00000381,-0.00002373,-0.00006
 963,-0.00001523,-0.00004065,0.00000811,-0.00000148,-0.00001427,-0.0000
 1846,0.00000806,-0.00000210,-0.00001175,0.00000718,0.00001709,0.000006
 13,0.00001075,0.00005686,-0.00044150,0.00295757,-0.00239550,0.00043380
 ,0.00035942,0.00082596,0.00434701,0.00055322,-0.00213537,-0.00535727,-
 0.01134259,-0.01035062,-0.02579996,-0.25633543,-0.13090943,0.00157841,
 -0.00136822,-0.00235206,0.00000909,-0.00001047,-0.00003909,-0.00001708
 ,-0.00000012,0.00001079,-0.00000492,-0.00000006,0.00000172,-0.00000740
 ,0.00000310,0.00000046,0.00001671,-0.00001191,0.00000506,-0.00016809,-
 0.00026989,0.00034090,-0.00023900,-0.00057628,-0.00055714,-0.00067486,
 -0.00020546,0.00197930,0.02682438,0.26668527,-0.00010344,0.00001228,-0
 .00043607,0.00061389,-0.00055696,0.00049079,-0.00004766,0.00005902,-0.
 00003165,0.00001668,0.00000877,-0.00000897,-0.00002652,0.00001832,-0.0
 0000995,-0.00001274,0.00000252,0.00000795,-0.00000542,0.00000584,0.000
 00554,-0.00000263,0.00001162,0.00003303,-0.00407907,-0.00248349,0.0044
 1755,-0.00012586,0.00069961,-0.00049281,-0.00074096,-0.00239115,0.0055
 0695,-0.00169513,-0.00188036,0.00224996,-0.02277324,-0.13071107,-0.119
 08076,0.00030373,-0.01073577,-0.00216666,0.00002572,-0.00000409,-0.000
 00446,-0.00000111,0.00000130,0.00000574,-0.00000611,-0.00000099,0.0000
 0112,-0.00001127,-0.00000142,-0.00000159,0.00001185,-0.00001128,0.0000
 0016,0.00023034,0.00040501,-0.00069141,-0.00013507,-0.00009502,0.00009
 896,0.00127099,0.00187853,-0.00270458,0.02605763,0.14377791,0.11550822
 ,0.00027615,0.00039714,0.00057080,-0.00059497,-0.00106883,0.00013214,-
 0.00086966,-0.00067387,-0.00067150,-0.00179620,-0.00162573,0.00097075,
 0.00005171,-0.00017136,0.00003287,-0.00009670,0.00013830,-0.00025532,-
 0.00023568,0.00000856,0.00019984,0.00045628,0.00019448,0.00014626,0.00
 659865,-0.00299541,-0.00014652,0.00152786,-0.00045931,-0.00200420,-0.0
 0004317,-0.00093724,-0.00025723,-0.00281369,-0.00139407,-0.00414734,-0
 .01462927,0.01894383,0.00383894,-0.21696740,0.14249131,0.01537645,-0.0
 0080550,-0.00045499,-0.00003137,0.00002383,-0.00001978,-0.00001644,0.0
 0001865,0.00002866,-0.00000923,-0.00000186,-0.00005289,0.00001438,0.00
 001224,0.00001875,0.00000756,0.00027654,-0.00022950,-0.00022844,-0.000
 10671,-0.00008667,0.00026436,-0.00074980,0.00081658,0.00023219,0.00067
 912,-0.00074992,0.00123541,0.22978958,-0.00029094,0.00044498,0.0000929
 3,0.00120900,-0.00058740,0.00224749,-0.00057348,0.00008669,-0.00054187
 ,-0.00032295,0.00019642,-0.00017480,-0.00028477,0.00019899,0.00016256,
 0.00009138,-0.00007311,0.00021580,0.00017941,-0.00011962,-0.00009485,-
 0.00033187,0.00026337,-0.00000170,0.02052194,-0.01122248,-0.00128265,-
 0.00119742,-0.00193411,-0.00523859,-0.00090247,-0.00034733,0.00000786,
 -0.00087995,0.00219923,-0.00307688,-0.00697251,0.00820993,-0.00026358,
 0.14159753,-0.17394480,-0.02580295,-0.00017619,-0.00055066,0.00051678,
 0.00001170,0.00001026,-0.00002994,0.00004525,-0.00001510,0.00001539,0.
 00000572,-0.00000761,0.00001549,0.00005072,-0.00002248,0.00003211,0.00
 119819,-0.00052515,-0.00009534,-0.00006702,-0.00022992,0.00045533,-0.0
 0038022,0.00023332,-0.00000826,-0.00041301,-0.00034529,0.00199088,-0.1
 5211804,0.17808187,-0.00055791,-0.00076938,-0.00043940,0.00265518,0.00
 188551,-0.00197139,0.00024741,-0.00012801,0.00050522,0.00029926,0.0003
 6202,0.00034854,-0.00018291,0.00008373,-0.00008112,0.00014621,-0.00007
 547,0.00025498,0.00017474,-0.00007284,-0.00027440,-0.00045920,0.000058
 71,-0.00026716,0.01180363,-0.00970320,0.00122414,-0.00257663,-0.005091
 71,0.00299906,-0.00004489,0.00025270,-0.00078561,-0.00368192,-0.003526
 59,0.00415253,-0.01052216,0.00849947,0.00570963,0.01570640,-0.02543256
 ,-0.04676397,0.00039410,0.00054982,-0.00006800,0.00003825,0.00000523,-
 0.00002473,-0.00000844,0.00000187,-0.00000576,0.00002261,0.00002207,-0
 .00001247,-0.00000431,-0.00002423,-0.00000908,0.00052199,-0.00059857,0
 .00021032,0.00029543,0.00048450,-0.00073309,-0.00046730,0.00039727,0.0
 0007832,0.00145482,0.00196088,-0.00269706,-0.01525437,0.03085879,0.038
 65054\\-0.00000040,0.00000808,0.00000449,-0.00000003,-0.00001392,-0.00
 000067,-0.00000101,-0.00000468,-0.00005911,-0.00005801,0.00004189,0.00
 006237,0.00006488,-0.00002303,0.00000786,-0.00003339,0.00000120,-0.000
 06097,-0.00005212,0.00001396,0.00005949,0.00007740,-0.00001587,0.00000
 812,0.00000362,-0.00004669,-0.00003191,-0.00007729,0.00001196,-0.00001
 405,0.00004971,0.00004999,0.00003866,0.00003531,-0.00005562,-0.0000223
 6,-0.00006493,0.00001518,-0.00001948,0.00005579,0.00004158,0.00006484,
 0.00000243,-0.00001110,-0.00001188,-0.00000195,-0.00000159,-0.00000851
 ,0.00001202,-0.00000272,0.00000193,0.00001347,-0.00000398,-0.00000226,
 -0.00001314,0.00000328,0.00000495,0.00001276,0.00000365,0.00000543,-0.
 00001334,-0.00000079,-0.00000497,-0.00001201,0.00000266,-0.00000214,0.
 00000230,-0.00000714,-0.00000473,-0.00000207,-0.00000632,-0.00001509\\
 \@


 MORNING PEOPLE ARE USUALLY ADMIRED AS EARLY BIRDS.
 RECALL BEN FRANKLIN'S APHORISM THAT THE EARLY BIRD GETS THE WORM.
 I IDENTIFY WITH THE WORM. --  CRAIG JAGGER, MINNEAPOLIS, KS.
 Job cpu time:       0 days  0 hours  1 minutes  8.8 seconds.
 Elapsed time:       0 days  0 hours  1 minutes 12.9 seconds.
 File lengths (MBytes):  RWF=    170 Int=      0 D2E=      0 Chk=      6 Scr=      1
 Normal termination of Gaussian 16 at Fri Jun 20 00:44:21 2025.
