 Entering Gaussian System, Link 0=g16
 Initial command:
 /Applications/g16/l1.exe "/Users/mac_poclab/competitive_ketones/RWCCWEUUXYIKHB-KHWBWMQUSA-N/Gau-98813.inp" -scrdir="/Users/mac_poclab/competitive_ketones/RWCCWEUUXYIKHB-KHWBWMQUSA-N/"
 Entering Link 1 = /Applications/g16/l1.exe PID=     98814.
  
 Copyright (c) 1988,1990,1992,1993,1995,1998,2003,2009,2016,
            Gaussian, Inc.  All Rights Reserved.
  
 This is part of the Gaussian(R) 16 program.  It is based on
 the Gaussian(R) 09 system (copyright 2009, Gaussian, Inc.),
 the Gaussian(R) 03 system (copyright 2003, Gaussian, Inc.),
 the Gaussian(R) 98 system (copyright 1998, Gaussian, Inc.),
 the Gaussian(R) 94 system (copyright 1995, Gaussian, Inc.),
 the Gaussian 92(TM) system (copyright 1992, Gaussian, Inc.),
 the Gaussian 90(TM) system (copyright 1990, Gaussian, Inc.),
 the Gaussian 88(TM) system (copyright 1988, Gaussian, Inc.),
 the Gaussian 86(TM) system (copyright 1986, Carnegie Mellon
 University), and the Gaussian 82(TM) system (copyright 1983,
 Carnegie Mellon University). Gaussian is a federally registered
 trademark of Gaussian, Inc.
  
 This software contains proprietary and confidential information,
 including trade secrets, belonging to Gaussian, Inc.
  
 This software is provided under written license and may be
 used, copied, transmitted, or stored only in accord with that
 written license.
  
 The following legend is applicable only to US Government
 contracts under FAR:
  
                    RESTRICTED RIGHTS LEGEND
  
 Use, reproduction and disclosure by the US Government is
 subject to restrictions as set forth in subparagraphs (a)
 and (c) of the Commercial Computer Software - Restricted
 Rights clause in FAR 52.227-19.
  
 Gaussian, Inc.
 340 Quinnipiac St., Bldg. 40, Wallingford CT 06492
  
  
 ---------------------------------------------------------------
 Warning -- This program may not be used in any manner that
 competes with the business of Gaussian, Inc. or will provide
 assistance to any competitor of Gaussian, Inc.  The licensee
 of this program is prohibited from giving any competitor of
 Gaussian, Inc. access to this program.  By using this program,
 the user acknowledges that Gaussian, Inc. is engaged in the
 business of creating and licensing software in the field of
 computational chemistry and represents and warrants to the
 licensee that it is not a competitor of Gaussian, Inc. and that
 it will not use this program in any manner prohibited above.
 ---------------------------------------------------------------
  

 Cite this work as:
 Gaussian 16, Revision A.03,
 M. J. Frisch, G. W. Trucks, H. B. Schlegel, G. E. Scuseria, 
 M. A. Robb, J. R. Cheeseman, G. Scalmani, V. Barone, 
 G. A. Petersson, H. Nakatsuji, X. Li, M. Caricato, A. V. Marenich, 
 J. Bloino, B. G. Janesko, R. Gomperts, B. Mennucci, H. P. Hratchian, 
 J. V. Ortiz, A. F. Izmaylov, J. L. Sonnenberg, D. Williams-Young, 
 F. Ding, F. Lipparini, F. Egidi, J. Goings, B. Peng, A. Petrone, 
 T. Henderson, D. Ranasinghe, V. G. Zakrzewski, J. Gao, N. Rega, 
 G. Zheng, W. Liang, M. Hada, M. Ehara, K. Toyota, R. Fukuda, 
 J. Hasegawa, M. Ishida, T. Nakajima, Y. Honda, O. Kitao, H. Nakai, 
 T. Vreven, K. Throssell, J. A. Montgomery, Jr., J. E. Peralta, 
 F. Ogliaro, M. J. Bearpark, J. J. Heyd, E. N. Brothers, K. N. Kudin, 
 V. N. Staroverov, T. A. Keith, R. Kobayashi, J. Normand, 
 K. Raghavachari, A. P. Rendell, J. C. Burant, S. S. Iyengar, 
 J. Tomasi, M. Cossi, J. M. Millam, M. Klene, C. Adamo, R. Cammi, 
 J. W. Ochterski, R. L. Martin, K. Morokuma, O. Farkas, 
 J. B. Foresman, and D. J. Fox, Gaussian, Inc., Wallingford CT, 2016.
 
 ******************************************
 Gaussian 16:  EM64M-G16RevA.03 25-Dec-2016
                20-Jun-2025 
 ******************************************
 %nprocshared=24
 Will use up to   24 processors via shared memory.
 %mem=30GB
 %chk=/Users/mac_poclab/competitive_ketones/RWCCWEUUXYIKHB-KHWBWMQUSA-N/sp14.chk
 ----------------------------------------------------
 # wb97xd/def2tzvp scrf=(smd,solvent=methanol) nosymm
 ----------------------------------------------------
 1/38=1,172=1/1;
 2/12=2,15=1,17=6,18=5,40=1/2;
 3/5=44,7=101,11=2,25=1,30=1,70=32201,72=3,74=-58/1,2,3;
 4//1;
 5/5=2,38=5,53=3/2;
 6/7=2,8=2,9=2,10=2,28=1/1;
 99/5=1,9=1/99;
 ---------
 good luck
 ---------
 Symbolic Z-matrix:
 Charge =  0 Multiplicity = 1
 8                     1.21956   0.        0. 
 6                     0.        0.        0. 
 6                    -0.75103  -1.2992    0.00001 
 6                    -0.1142   -2.4237    0.55145 
 6                    -0.74112  -3.66782   0.53885 
 6                    -2.0028   -3.80969  -0.05045 
 6                    -2.63204  -2.70311  -0.62676 
 6                    -2.01312  -1.45134  -0.59739 
 6                    -0.75103   1.2992    0.00001 
 6                    -2.01311   1.45133   0.59744 
 6                    -2.63203   2.7031    0.62683 
 6                    -2.0028    3.80969   0.05052 
 6                    -0.74113   3.66783  -0.5388 
 6                    -0.11421   2.4237   -0.55142 
 1                     0.87943  -2.29536   0.98432 
 1                    -0.24453  -4.53367   0.98318 
 1                    -2.4925   -4.78644  -0.06651 
 1                    -3.60798  -2.81528  -1.10485 
 1                    -2.50205  -0.59506  -1.06418 
 1                    -2.50203   0.59505   1.06424 
 1                    -3.60796   2.81527   1.10494 
 1                    -2.4925    4.78643   0.0666 
 1                    -0.24455   4.53368  -0.98313 
 1                     0.87941   2.29537  -0.98431 
 
                          Input orientation:                          
 ---------------------------------------------------------------------
 Center     Atomic      Atomic             Coordinates (Angstroms)
 Number     Number       Type             X           Y           Z
 ---------------------------------------------------------------------
      1          8           0        1.219556    0.000000    0.000000
      2          6           0        0.000000    0.000000    0.000000
      3          6           0       -0.751025   -1.299197    0.000014
      4          6           0       -0.114202   -2.423696    0.551451
      5          6           0       -0.741117   -3.667822    0.538853
      6          6           0       -2.002803   -3.809692   -0.050445
      7          6           0       -2.632043   -2.703113   -0.626761
      8          6           0       -2.013120   -1.451335   -0.597387
      9          6           0       -0.751026    1.299197    0.000014
     10          6           0       -2.013111    1.451328    0.597437
     11          6           0       -2.632033    2.703104    0.626834
     12          6           0       -2.002805    3.809690    0.050518
     13          6           0       -0.741129    3.667827   -0.538803
     14          6           0       -0.114213    2.423702   -0.551424
     15          1           0        0.879428   -2.295363    0.984322
     16          1           0       -0.244530   -4.533666    0.983178
     17          1           0       -2.492502   -4.786437   -0.066512
     18          1           0       -3.607980   -2.815280   -1.104845
     19          1           0       -2.502053   -0.595059   -1.064185
     20          1           0       -2.502034    0.595047    1.064235
     21          1           0       -3.607964    2.815266    1.104935
     22          1           0       -2.492502    4.786435    0.066603
     23          1           0       -0.244549    4.533675   -0.983128
     24          1           0        0.879411    2.295373   -0.984313
 ---------------------------------------------------------------------
                    Distance matrix (angstroms):
                    1          2          3          4          5
     1  O    0.000000
     2  C    1.219556   0.000000
     3  C    2.360318   1.500650   0.000000
     4  C    2.820871   2.488261   1.405035   0.000000
     5  C    4.193748   3.780547   2.429162   1.393209   0.000000
     6  C    4.989979   4.304360   2.805723   2.418693   1.399732
     7  C    4.747048   3.824565   2.429415   2.793883   2.421760
     8  C    3.593527   2.552625   1.404606   2.423057   2.796757
     9  C    2.360319   1.500651   2.598394   3.817009   4.996171
    10  C    3.593525   2.552626   3.084666   4.315528   5.275140
    11  C    4.747044   3.824564   4.466487   5.712200   6.646202
    12  C    4.989980   4.304360   5.260250   6.532446   7.598915
    13  C    4.193751   3.780547   4.996173   6.219995   7.414384
    14  C    2.820876   2.488261   3.817013   4.971278   6.219998
    15  H    2.520569   2.647825   2.149322   1.091397   2.169851
    16  H    4.864598   4.645488   3.418324   2.157625   1.092570
    17  H    6.057539   5.396941   3.898463   3.408920   2.164513
    18  H    5.696630   4.707866   3.417808   3.886276   3.412840
    19  H    3.916243   2.783317   2.166663   3.414092   3.887480
    20  H    3.916237   2.783317   2.790477   3.882975   4.642080
    21  H    5.696626   4.707867   5.129499   6.321348   7.111237
    22  H    6.057538   5.396940   6.330252   7.607718   8.646666
    23  H    4.864602   4.645487   5.936791   7.125794   8.356289
    24  H    2.520577   2.647824   4.067942   5.061171   6.364420
                    6          7          8          9         10
     6  C    0.000000
     7  C    1.397355   0.000000
     8  C    2.420971   1.396738   0.000000
     9  C    5.260251   4.466493   3.084671   0.000000
    10  C    5.300772   4.375056   3.138958   1.404606   0.000000
    11  C    6.578081   5.549656   4.375058   2.429413   1.396736
    12  C    7.620051   6.578089   5.300780   2.805722   2.420970
    13  C    7.598921   6.646215   5.275150   2.429162   2.796757
    14  C    6.532454   5.712213   4.315538   1.405036   2.423057
    15  H    3.416312   3.884878   3.403090   4.067936   4.749122
    16  H    2.164264   3.412191   3.889327   5.936787   6.252746
    17  H    1.092746   2.161849   3.410944   6.330253   6.291292
    18  H    2.162685   1.092519   2.159036   5.129505   4.862645
    19  H    3.407460   2.156879   1.090947   2.790488   2.680998
    20  H    4.570937   3.708669   2.680989   2.166662   1.090946
    21  H    6.913864   5.865467   4.862645   3.417808   2.159036
    22  H    8.610860   7.522869   6.291301   3.898461   3.410944
    23  H    8.577478   7.628776   6.252758   3.418323   3.889326
    24  H    6.815503   6.119070   4.749133   2.149323   3.403091
                   11         12         13         14         15
    11  C    0.000000
    12  C    1.397355   0.000000
    13  C    2.421759   1.399732   0.000000
    14  C    2.793882   2.418693   1.393209   0.000000
    15  H    6.119055   6.815492   6.364413   5.061167   0.000000
    16  H    7.628761   8.577469   8.356287   7.125795   2.504652
    17  H    7.522860   8.610859   8.646673   7.607727   4.321992
    18  H    5.865471   6.913876   7.111253   6.321362   4.977124
    19  H    3.708682   4.570955   4.642098   3.882991   4.303699
    20  H    2.156878   3.407460   3.887479   3.414092   4.449173
    21  H    1.092521   2.162686   3.412840   3.886276   6.802188
    22  H    2.161850   1.092745   2.164511   3.408918   7.897087
    23  H    3.412191   2.164265   1.092570   2.157624   7.195133
    24  H    3.884878   3.416314   2.169852   1.091398   4.995036
                   16         17         18         19         20
    16  H    0.000000
    17  H    2.493816   0.000000
    18  H    4.315725   2.491563   0.000000
    19  H    4.980033   4.308491   2.480748   0.000000
    20  H    5.604158   5.499004   4.190269   2.438550   0.000000
    21  H    8.082964   7.771900   6.048651   4.190279   2.480748
    22  H    9.631084   9.573797   7.771914   5.499023   4.308491
    23  H    9.278094   9.631094   8.082984   5.604178   4.980033
    24  H    7.195140   7.897100   6.802204   4.449188   4.303699
                   21         22         23         24
    21  H    0.000000
    22  H    2.491565   0.000000
    23  H    4.315727   2.493815   0.000000
    24  H    4.977126   4.321992   2.504652   0.000000
 Symmetry turned off by external request.
 Stoichiometry    C13H10O
 Framework group  C1[X(C13H10O)]
 Deg. of freedom    66
 Full point group                 C1      NOp   1
 Rotational constants (GHZ):           1.7060017           0.4093786           0.3486818
 Standard basis: def2TZVP (5D, 7F)
   494 basis functions,   794 primitive gaussians,   564 cartesian basis functions
    48 alpha electrons       48 beta electrons
       nuclear repulsion energy       773.1496530372 Hartrees.
 NAtoms=   24 NActive=   24 NUniq=   24 SFac= 1.00D+00 NAtFMM=   60 NAOKFM=F Big=F
 Integral buffers will be    131072 words long.
 Raffenetti 2 integral format.
 Two-electron integral symmetry is turned off.
 Nuclear repulsion after empirical dispersion term =      773.1359478366 Hartrees.
 ------------------------------------------------------------------------------
 Polarizable Continuum Model (PCM)
 =================================
 Model                : PCM.
 Atomic radii         : SMD-Coulomb.
 Polarization charges : Total charges.
 Charge compensation  : None.
 Solution method      : On-the-fly selection.
 Cavity type          : VdW (van der Waals Surface) (Alpha=1.000).
 Cavity algorithm     : GePol (No added spheres)
                        Default sphere list used, NSphG=   24.
                        Lebedev-Laikov grids with approx.  5.0 points / Ang**2.
                        Smoothing algorithm: York/Karplus (Gamma=1.0000).
                        Polarization charges: spherical gaussians, with
                                              point-specific exponents (IZeta= 3).
                        Self-potential: point-specific (ISelfS= 7).
                        Self-field    : sphere-specific E.n sum rule (ISelfD= 2).
 Solvent              : Methanol, Eps=  32.613000 Eps(inf)=   1.765709
 ------------------------------------------------------------------------------
 ------------------------------------------------------------------------------
 Atomic radii for non-electrostatic terms: SMD-CDS.
 ------------------------------------------------------------------------------
 Nuclear repulsion after PCM non-electrostatic terms =      773.1361088251 Hartrees.
 One-electron integrals computed using PRISM.
   1 Symmetry operations used in ECPInt.
 ECPInt:  NShTT=   18915 NPrTT=   58308 LenC2=   17458 LenP2D=   40297.
 LDataN:  DoStor=T MaxTD1= 6 Len=  172
 NBasis=   494 RedAO= T EigKep=  8.18D-06  NBF=   494
 NBsUse=   494 1.00D-06 EigRej= -1.00D+00 NBFU=   494
 ExpMin= 9.52D-02 ExpMax= 2.70D+04 ExpMxC= 9.22D+02 IAcc=3 IRadAn=         5 AccDes= 0.00D+00
 Harris functional with IExCor= 4639 and IRadAn=       5 diagonalized for initial guess.
 HarFok:  IExCor= 4639 AccDes= 0.00D+00 IRadAn=         5 IDoV= 1 UseB2=F ITyADJ=14
 ICtDFT=  3500011 ScaDFX=  1.000000  1.000000  1.000000  1.000000
 FoFCou: FMM=F IPFlag=           0 FMFlag=      100000 FMFlg1=           0
         NFxFlg=           0 DoJE=T BraDBF=F KetDBF=T FulRan=T
         wScrn=  0.000000 ICntrl=       500 IOpCl=  0 I1Cent=   200000004 NGrid=           0
         NMat0=    1 NMatS0=      1 NMatT0=    0 NMatD0=    1 NMtDS0=    0 NMtDT0=    0
 Symmetry not used in FoFCou.
 Requested convergence on RMS density matrix=1.00D-08 within 128 cycles.
 Requested convergence on MAX density matrix=1.00D-06.
 Requested convergence on             energy=1.00D-06.
 No special actions if energy rises.
 Inv3:  Mode=1 IEnd=    11186283.
 Iteration    1 A*A^-1 deviation from unit magnitude is 3.22D-15 for   1930.
 Iteration    1 A*A^-1 deviation from orthogonality  is 2.46D-15 for    704     13.
 Iteration    1 A^-1*A deviation from unit magnitude is 3.22D-15 for   1930.
 Iteration    1 A^-1*A deviation from orthogonality  is 1.62D-15 for   1920   1904.
 Error on total polarization charges =  0.05331
 SCF Done:  E(RwB97XD) =  -576.650088229     A.U. after   14 cycles
            NFock= 14  Conv=0.56D-08     -V/T= 2.0056
 SMD-CDS (non-electrostatic) energy       (kcal/mol) =       0.10
 (included in total energy above)

 **********************************************************************

            Population analysis using the SCF density.

 **********************************************************************

 Alpha  occ. eigenvalues --  -19.24975 -10.39181 -10.30680 -10.30680 -10.30197
 Alpha  occ. eigenvalues --  -10.30197 -10.29939 -10.29938 -10.29911 -10.29911
 Alpha  occ. eigenvalues --  -10.29551 -10.29551 -10.29531 -10.29531  -1.15900
 Alpha  occ. eigenvalues --   -0.96941  -0.96326  -0.87911  -0.85586  -0.85243
 Alpha  occ. eigenvalues --   -0.84839  -0.75308  -0.71236  -0.70691  -0.69554
 Alpha  occ. eigenvalues --   -0.65235  -0.62221  -0.59680  -0.56250  -0.55831
 Alpha  occ. eigenvalues --   -0.54577  -0.53660  -0.52588  -0.51963  -0.51168
 Alpha  occ. eigenvalues --   -0.51080  -0.49423  -0.46857  -0.45437  -0.44789
 Alpha  occ. eigenvalues --   -0.44252  -0.42707  -0.42600  -0.35913  -0.34258
 Alpha  occ. eigenvalues --   -0.33976  -0.33957  -0.33691
 Alpha virt. eigenvalues --   -0.01188   0.04030   0.04691   0.05487   0.11666
 Alpha virt. eigenvalues --    0.13322   0.14189   0.15978   0.16583   0.16841
 Alpha virt. eigenvalues --    0.17723   0.19067   0.19189   0.19233   0.20729
 Alpha virt. eigenvalues --    0.20933   0.21942   0.22569   0.24323   0.24620
 Alpha virt. eigenvalues --    0.26459   0.27701   0.28448   0.28947   0.29090
 Alpha virt. eigenvalues --    0.29358   0.29433   0.30036   0.31054   0.31248
 Alpha virt. eigenvalues --    0.31651   0.31817   0.33365   0.33442   0.33898
 Alpha virt. eigenvalues --    0.34801   0.34911   0.36624   0.37256   0.38545
 Alpha virt. eigenvalues --    0.38683   0.39185   0.40639   0.40958   0.40991
 Alpha virt. eigenvalues --    0.41950   0.42648   0.43287   0.44881   0.45040
 Alpha virt. eigenvalues --    0.45633   0.46484   0.47031   0.47528   0.47743
 Alpha virt. eigenvalues --    0.49037   0.49533   0.49732   0.49994   0.50106
 Alpha virt. eigenvalues --    0.51219   0.51396   0.53373   0.54169   0.54626
 Alpha virt. eigenvalues --    0.55074   0.55119   0.55980   0.57071   0.57604
 Alpha virt. eigenvalues --    0.58066   0.58621   0.59445   0.59987   0.60925
 Alpha virt. eigenvalues --    0.61211   0.62919   0.66330   0.66649   0.67396
 Alpha virt. eigenvalues --    0.69118   0.71144   0.72175   0.72922   0.74023
 Alpha virt. eigenvalues --    0.74479   0.75369   0.75915   0.76780   0.76780
 Alpha virt. eigenvalues --    0.78233   0.78328   0.79019   0.79953   0.80982
 Alpha virt. eigenvalues --    0.82420   0.83200   0.84528   0.84779   0.85524
 Alpha virt. eigenvalues --    0.86633   0.87763   0.89059   0.89936   0.90199
 Alpha virt. eigenvalues --    0.91408   0.93014   0.94493   0.95923   0.96925
 Alpha virt. eigenvalues --    0.97419   0.97635   0.98104   0.98921   1.00292
 Alpha virt. eigenvalues --    1.02296   1.06212   1.06366   1.07693   1.07977
 Alpha virt. eigenvalues --    1.08125   1.11052   1.11320   1.11777   1.14119
 Alpha virt. eigenvalues --    1.15903   1.18186   1.18253   1.19990   1.20497
 Alpha virt. eigenvalues --    1.20941   1.25791   1.26396   1.27453   1.27960
 Alpha virt. eigenvalues --    1.29211   1.29976   1.30397   1.31154   1.32789
 Alpha virt. eigenvalues --    1.32963   1.34444   1.35505   1.35516   1.37102
 Alpha virt. eigenvalues --    1.38018   1.39273   1.40203   1.40928   1.42522
 Alpha virt. eigenvalues --    1.45695   1.47759   1.48111   1.49896   1.50858
 Alpha virt. eigenvalues --    1.51267   1.52967   1.55026   1.55988   1.56347
 Alpha virt. eigenvalues --    1.56350   1.57916   1.59344   1.59884   1.60269
 Alpha virt. eigenvalues --    1.64221   1.64358   1.65541   1.66163   1.66995
 Alpha virt. eigenvalues --    1.69168   1.69867   1.71819   1.72255   1.72695
 Alpha virt. eigenvalues --    1.74253   1.74306   1.77046   1.77351   1.78217
 Alpha virt. eigenvalues --    1.78483   1.78821   1.79352   1.79706   1.80668
 Alpha virt. eigenvalues --    1.81345   1.85172   1.86794   1.89219   1.91157
 Alpha virt. eigenvalues --    1.91793   1.92451   1.94019   1.94869   1.99448
 Alpha virt. eigenvalues --    2.00798   2.01339   2.02373   2.07055   2.08666
 Alpha virt. eigenvalues --    2.10373   2.10411   2.11948   2.13567   2.15726
 Alpha virt. eigenvalues --    2.16112   2.16193   2.17363   2.19372   2.21461
 Alpha virt. eigenvalues --    2.22610   2.22971   2.24878   2.25911   2.28653
 Alpha virt. eigenvalues --    2.30035   2.30465   2.30534   2.33227   2.33746
 Alpha virt. eigenvalues --    2.35661   2.36800   2.40246   2.42206   2.45948
 Alpha virt. eigenvalues --    2.47860   2.48279   2.51986   2.52564   2.56485
 Alpha virt. eigenvalues --    2.56494   2.56954   2.58389   2.61820   2.64067
 Alpha virt. eigenvalues --    2.64494   2.65067   2.66782   2.68499   2.69027
 Alpha virt. eigenvalues --    2.69279   2.70476   2.71836   2.72189   2.73866
 Alpha virt. eigenvalues --    2.74068   2.75265   2.75569   2.76187   2.76945
 Alpha virt. eigenvalues --    2.77611   2.78229   2.78617   2.81361   2.81544
 Alpha virt. eigenvalues --    2.82739   2.83685   2.84283   2.84821   2.86181
 Alpha virt. eigenvalues --    2.86231   2.87512   2.87705   2.89131   2.89816
 Alpha virt. eigenvalues --    2.90493   2.91972   2.92099   2.92945   2.93376
 Alpha virt. eigenvalues --    2.93428   2.94464   2.95613   2.95839   2.98341
 Alpha virt. eigenvalues --    2.99366   2.99874   3.05094   3.05575   3.06643
 Alpha virt. eigenvalues --    3.08960   3.09818   3.11457   3.11586   3.13292
 Alpha virt. eigenvalues --    3.15051   3.15554   3.17177   3.17818   3.18865
 Alpha virt. eigenvalues --    3.20139   3.20820   3.20822   3.21796   3.22782
 Alpha virt. eigenvalues --    3.23497   3.24036   3.24299   3.25851   3.26799
 Alpha virt. eigenvalues --    3.27913   3.28837   3.29020   3.31645   3.32377
 Alpha virt. eigenvalues --    3.33275   3.34128   3.35443   3.36642   3.38128
 Alpha virt. eigenvalues --    3.38546   3.38754   3.40757   3.41300   3.43710
 Alpha virt. eigenvalues --    3.44326   3.45374   3.45601   3.45646   3.46341
 Alpha virt. eigenvalues --    3.46725   3.48698   3.49865   3.50853   3.52467
 Alpha virt. eigenvalues --    3.54156   3.54267   3.55311   3.55450   3.55703
 Alpha virt. eigenvalues --    3.57195   3.58006   3.59520   3.59918   3.60173
 Alpha virt. eigenvalues --    3.61942   3.63953   3.64229   3.66496   3.69000
 Alpha virt. eigenvalues --    3.70318   3.72579   3.73460   3.76113   3.76802
 Alpha virt. eigenvalues --    3.77490   3.78847   3.81482   3.83515   3.84297
 Alpha virt. eigenvalues --    3.88784   3.90799   3.94017   3.95329   3.97420
 Alpha virt. eigenvalues --    4.00343   4.00429   4.01839   4.03690   4.06636
 Alpha virt. eigenvalues --    4.08045   4.08642   4.10881   4.13705   4.15060
 Alpha virt. eigenvalues --    4.19414   4.20306   4.21880   4.22956   4.25571
 Alpha virt. eigenvalues --    4.26667   4.27948   4.28394   4.29016   4.29135
 Alpha virt. eigenvalues --    4.30219   4.30901   4.30956   4.32326   4.34064
 Alpha virt. eigenvalues --    4.34350   4.38338   4.39393   4.40747   4.41619
 Alpha virt. eigenvalues --    4.44753   4.45614   4.51742   4.57166   4.58641
 Alpha virt. eigenvalues --    4.64494   4.68408   4.72549   4.73192   4.75457
 Alpha virt. eigenvalues --    4.76654   4.78001   4.79907   4.81511   4.84271
 Alpha virt. eigenvalues --    4.93027   4.93702   4.95922   4.98350   5.01644
 Alpha virt. eigenvalues --    5.07556   5.12422   5.14518   5.23988   5.24811
 Alpha virt. eigenvalues --    5.28670   5.28864   5.29768   5.31645   5.37949
 Alpha virt. eigenvalues --    5.44562   5.47394   5.50644   5.51508   5.54577
 Alpha virt. eigenvalues --    5.63980   5.73893   5.76700   5.86744   6.24227
 Alpha virt. eigenvalues --    6.45233   6.50386   6.70716   6.72611   6.91847
 Alpha virt. eigenvalues --    7.16120   7.17666  22.07009  22.22610  22.64209
 Alpha virt. eigenvalues --   22.65264  22.67567  22.67651  22.79986  22.82054
 Alpha virt. eigenvalues --   22.84894  22.89896  23.21843  23.23444  23.46976
 Alpha virt. eigenvalues --   44.04085
          Condensed to atoms (all electrons):
               1          2          3          4          5          6
     1  O    8.046853   0.584811  -0.140360   0.035292  -0.001175   0.000768
     2  C    0.584811   4.718674   0.329241  -0.096833   0.007407  -0.005638
     3  C   -0.140360   0.329241   5.322088   0.276749   0.025762  -0.084902
     4  C    0.035292  -0.096833   0.276749   5.174279   0.399149   0.035532
     5  C   -0.001175   0.007407   0.025762   0.399149   5.020595   0.395889
     6  C    0.000768  -0.005638  -0.084902   0.035532   0.395889   5.006357
     7  C   -0.001062   0.008148   0.001339  -0.081749   0.017567   0.404866
     8  C    0.002821  -0.057074   0.369383   0.038146  -0.072900   0.036249
     9  C   -0.140360   0.329239  -0.163285   0.034026  -0.002587   0.000852
    10  C    0.002821  -0.057073   0.001132  -0.001230   0.000098  -0.000083
    11  C   -0.001062   0.008148  -0.003022   0.000322  -0.000022   0.000004
    12  C    0.000768  -0.005638   0.000852  -0.000038   0.000001  -0.000001
    13  C   -0.001175   0.007407  -0.002587   0.000113  -0.000004   0.000001
    14  C    0.035292  -0.096830   0.034025  -0.004137   0.000113  -0.000038
    15  H    0.018360  -0.010472  -0.074243   0.452762  -0.040805   0.010229
    16  H   -0.000107  -0.000089   0.013177  -0.058184   0.454143  -0.054024
    17  H    0.000000   0.000048  -0.003746   0.011067  -0.053682   0.448195
    18  H    0.000004   0.000004   0.011405  -0.003383   0.009578  -0.052294
    19  H   -0.000045  -0.005940  -0.054862   0.008781  -0.002947   0.007976
    20  H   -0.000045  -0.005940   0.005356  -0.000575   0.000222  -0.000146
    21  H    0.000004   0.000004   0.000024  -0.000004   0.000000   0.000000
    22  H    0.000000   0.000048  -0.000003  -0.000000   0.000000  -0.000000
    23  H   -0.000107  -0.000089   0.000001   0.000001  -0.000000   0.000000
    24  H    0.018360  -0.010472   0.002788  -0.000376   0.000010  -0.000002
               7          8          9         10         11         12
     1  O   -0.001062   0.002821  -0.140360   0.002821  -0.001062   0.000768
     2  C    0.008148  -0.057074   0.329239  -0.057073   0.008148  -0.005638
     3  C    0.001339   0.369383  -0.163285   0.001132  -0.003022   0.000852
     4  C   -0.081749   0.038146   0.034026  -0.001230   0.000322  -0.000038
     5  C    0.017567  -0.072900  -0.002587   0.000098  -0.000022   0.000001
     6  C    0.404866   0.036249   0.000852  -0.000083   0.000004  -0.000001
     7  C    5.027348   0.401104  -0.003021   0.001894  -0.000070   0.000004
     8  C    0.401104   5.161524   0.001132   0.012512   0.001895  -0.000083
     9  C   -0.003021   0.001132   5.322088   0.369384   0.001338  -0.084902
    10  C    0.001894   0.012512   0.369384   5.161519   0.401106   0.036248
    11  C   -0.000070   0.001895   0.001338   0.401106   5.027347   0.404866
    12  C    0.000004  -0.000083  -0.084902   0.036248   0.404866   5.006357
    13  C   -0.000022   0.000098   0.025762  -0.072899   0.017566   0.395890
    14  C    0.000322  -0.001229   0.276748   0.038146  -0.081749   0.035532
    15  H   -0.003965   0.010774   0.002788  -0.000161   0.000018  -0.000002
    16  H    0.010507  -0.004123   0.000001  -0.000000  -0.000000   0.000000
    17  H   -0.053241   0.010874  -0.000003   0.000005   0.000000  -0.000000
    18  H    0.450766  -0.055443   0.000024   0.000020  -0.000000   0.000000
    19  H   -0.036970   0.442183   0.005356  -0.006740   0.000241  -0.000146
    20  H    0.000241  -0.006741  -0.054862   0.442183  -0.036970   0.007976
    21  H   -0.000000   0.000020   0.011405  -0.055443   0.450766  -0.052294
    22  H    0.000000   0.000005  -0.003746   0.010874  -0.053241   0.448195
    23  H   -0.000000  -0.000000   0.013177  -0.004123   0.010507  -0.054024
    24  H    0.000018  -0.000161  -0.074243   0.010774  -0.003965   0.010229
              13         14         15         16         17         18
     1  O   -0.001175   0.035292   0.018360  -0.000107   0.000000   0.000004
     2  C    0.007407  -0.096830  -0.010472  -0.000089   0.000048   0.000004
     3  C   -0.002587   0.034025  -0.074243   0.013177  -0.003746   0.011405
     4  C    0.000113  -0.004137   0.452762  -0.058184   0.011067  -0.003383
     5  C   -0.000004   0.000113  -0.040805   0.454143  -0.053682   0.009578
     6  C    0.000001  -0.000038   0.010229  -0.054024   0.448195  -0.052294
     7  C   -0.000022   0.000322  -0.003965   0.010507  -0.053241   0.450766
     8  C    0.000098  -0.001229   0.010774  -0.004123   0.010874  -0.055443
     9  C    0.025762   0.276748   0.002788   0.000001  -0.000003   0.000024
    10  C   -0.072899   0.038146  -0.000161  -0.000000   0.000005   0.000020
    11  C    0.017566  -0.081749   0.000018  -0.000000   0.000000  -0.000000
    12  C    0.395890   0.035532  -0.000002   0.000000  -0.000000   0.000000
    13  C    5.020594   0.399150   0.000010  -0.000000   0.000000   0.000000
    14  C    0.399150   5.174278  -0.000376   0.000001  -0.000000  -0.000004
    15  H    0.000010  -0.000376   0.473983  -0.005939  -0.000025   0.000019
    16  H   -0.000000   0.000001  -0.005939   0.481087  -0.005965  -0.000041
    17  H    0.000000  -0.000000  -0.000025  -0.005965   0.480275  -0.005927
    18  H    0.000000  -0.000004   0.000019  -0.000041  -0.005927   0.479959
    19  H    0.000222  -0.000575   0.000027   0.000011  -0.000039  -0.005363
    20  H   -0.002947   0.008781  -0.000032   0.000001  -0.000001   0.000049
    21  H    0.009578  -0.003383  -0.000000   0.000000   0.000000  -0.000000
    22  H   -0.053682   0.011067   0.000000   0.000000  -0.000000   0.000000
    23  H    0.454143  -0.058184   0.000000  -0.000000   0.000000   0.000000
    24  H   -0.040805   0.452762  -0.000053   0.000000   0.000000  -0.000000
              19         20         21         22         23         24
     1  O   -0.000045  -0.000045   0.000004   0.000000  -0.000107   0.018360
     2  C   -0.005940  -0.005940   0.000004   0.000048  -0.000089  -0.010472
     3  C   -0.054862   0.005356   0.000024  -0.000003   0.000001   0.002788
     4  C    0.008781  -0.000575  -0.000004  -0.000000   0.000001  -0.000376
     5  C   -0.002947   0.000222   0.000000   0.000000  -0.000000   0.000010
     6  C    0.007976  -0.000146   0.000000  -0.000000   0.000000  -0.000002
     7  C   -0.036970   0.000241  -0.000000   0.000000  -0.000000   0.000018
     8  C    0.442183  -0.006741   0.000020   0.000005  -0.000000  -0.000161
     9  C    0.005356  -0.054862   0.011405  -0.003746   0.013177  -0.074243
    10  C   -0.006740   0.442183  -0.055443   0.010874  -0.004123   0.010774
    11  C    0.000241  -0.036970   0.450766  -0.053241   0.010507  -0.003965
    12  C   -0.000146   0.007976  -0.052294   0.448195  -0.054024   0.010229
    13  C    0.000222  -0.002947   0.009578  -0.053682   0.454143  -0.040805
    14  C   -0.000575   0.008781  -0.003383   0.011067  -0.058184   0.452762
    15  H    0.000027  -0.000032  -0.000000   0.000000   0.000000  -0.000053
    16  H    0.000011   0.000001   0.000000   0.000000  -0.000000   0.000000
    17  H   -0.000039  -0.000001   0.000000  -0.000000   0.000000   0.000000
    18  H   -0.005363   0.000049  -0.000000   0.000000   0.000000  -0.000000
    19  H    0.453791  -0.003626   0.000049  -0.000001   0.000001  -0.000032
    20  H   -0.003626   0.453791  -0.005363  -0.000039   0.000011   0.000027
    21  H    0.000049  -0.005363   0.479959  -0.005927  -0.000041   0.000019
    22  H   -0.000001  -0.000039  -0.005927   0.480275  -0.005965  -0.000025
    23  H    0.000001   0.000011  -0.000041  -0.005965   0.481087  -0.005939
    24  H   -0.000032   0.000027   0.000019  -0.000025  -0.005939   0.473983
 Mulliken charges:
               1
     1  O   -0.460656
     2  C    0.358910
     3  C    0.133687
     4  C   -0.219712
     5  C   -0.156414
     6  C   -0.149788
     7  C   -0.144021
     8  C   -0.290965
     9  C    0.133690
    10  C   -0.290963
    11  C   -0.144022
    12  C   -0.149789
    13  C   -0.156414
    14  C   -0.219714
    15  H    0.167102
    16  H    0.169545
    17  H    0.172164
    18  H    0.170627
    19  H    0.198647
    20  H    0.198647
    21  H    0.170627
    22  H    0.172164
    23  H    0.169545
    24  H    0.167103
 Sum of Mulliken charges =  -0.00000
 Mulliken charges with hydrogens summed into heavy atoms:
               1
     1  O   -0.460656
     2  C    0.358910
     3  C    0.133687
     4  C   -0.052609
     5  C    0.013131
     6  C    0.022376
     7  C    0.026605
     8  C   -0.092318
     9  C    0.133690
    10  C   -0.092316
    11  C    0.026605
    12  C    0.022375
    13  C    0.013131
    14  C   -0.052611
 Electronic spatial extent (au):  <R**2>=           3501.4183
 Charge=             -0.0000 electrons
 Dipole moment (field-independent basis, Debye):
    X=             -4.8422    Y=             -0.0000    Z=              0.0000  Tot=              4.8422
 Quadrupole moment (field-independent basis, Debye-Ang):
   XX=            -72.3462   YY=            -58.9586   ZZ=            -82.2460
   XY=              0.0000   XZ=             -0.0001   YZ=             -3.3185
 Traceless Quadrupole moment (field-independent basis, Debye-Ang):
   XX=             -1.1626   YY=             12.2250   ZZ=            -11.0624
   XY=              0.0000   XZ=             -0.0001   YZ=             -3.3185
 Octapole moment (field-independent basis, Debye-Ang**2):
  XXX=            223.2709  YYY=              0.0004  ZZZ=             -0.0055  XYY=             50.5192
  XXY=             -0.0004  XXZ=             -0.0012  XZZ=             93.2495  YZZ=              0.0001
  YYZ=             -0.0008  XYZ=            -16.0317
 Hexadecapole moment (field-independent basis, Debye-Ang**3):
 XXXX=          -1216.3116 YYYY=          -2735.7094 ZZZZ=           -221.9939 XXXY=              0.0018
 XXXZ=              0.0070 YYYX=             -0.0001 YYYZ=            -61.6785 ZZZX=              0.0086
 ZZZY=             26.8551 XXYY=           -638.7186 XXZZ=           -252.7717 YYZZ=           -618.6366
 XXYZ=             58.7827 YYXZ=              0.0003 ZZXY=             -0.0012
 N-N= 7.731361088251D+02 E-N=-2.887257223033D+03  KE= 5.734314080013D+02
 1\1\GINC-MAC-2024NOMAC-STUDIO\SP\RwB97XD\def2TZVP\C13H10O1\ROOT\20-Jun
 -2025\0\\# wb97xd/def2tzvp scrf=(smd,solvent=methanol) nosymm\\good lu
 ck\\0,1\O,0,1.219556,0.,0.\C,0,0.,0.,0.\C,0,-0.751025,-1.299197,0.0000
 14\C,0,-0.114202,-2.423696,0.551451\C,0,-0.741117,-3.667822,0.538853\C
 ,0,-2.002803,-3.809692,-0.050445\C,0,-2.632043,-2.703113,-0.626761\C,0
 ,-2.01312,-1.451335,-0.597387\C,0,-0.751026,1.299197,0.000014\C,0,-2.0
 13111,1.451328,0.597437\C,0,-2.632033,2.703104,0.626834\C,0,-2.002805,
 3.80969,0.050518\C,0,-0.741129,3.667827,-0.538803\C,0,-0.114213,2.4237
 02,-0.551424\H,0,0.879428,-2.295363,0.984322\H,0,-0.24453,-4.533666,0.
 983178\H,0,-2.492502,-4.786437,-0.066512\H,0,-3.60798,-2.81528,-1.1048
 45\H,0,-2.502053,-0.595059,-1.064185\H,0,-2.502034,0.595047,1.064235\H
 ,0,-3.607964,2.815266,1.104935\H,0,-2.492502,4.786435,0.066603\H,0,-0.
 244549,4.533675,-0.983128\H,0,0.879411,2.295373,-0.984313\\Version=EM6
 4M-G16RevA.03\HF=-576.6500882\RMSD=5.629e-09\Dipole=-1.9050611,-0.0000
 018,0.0000139\Quadrupole=-0.8643607,9.0889951,-8.2246344,0.0000163,-0.
 0001081,-2.4671915\PG=C01 [X(C13H10O1)]\\@


 HE WHO LAUGHS LAST PROBABLY DIDN'T GET THE JOKE.
 Job cpu time:       0 days  0 hours  2 minutes 21.7 seconds.
 Elapsed time:       0 days  0 hours  2 minutes 31.0 seconds.
 File lengths (MBytes):  RWF=    191 Int=      0 D2E=      0 Chk=     16 Scr=      1
 Normal termination of Gaussian 16 at Fri Jun 20 00:38:55 2025.
